# vtk DataFile Version 4.0
vtk output
ASCII
DATASET POLYDATA
POINTS 18154 float
19.47 -102.312 -6.6535 18.81 -102.958 -6.62117 18.81 -102.312 -6.6535 
17.82 -102.978 -6.62016 17.82 -102.312 -6.6535 16.83 -103.012 -6.61847 
16.83 -102.312 -6.6535 15.84 -103.012 -6.61847 15.84 -102.312 -6.6535 
14.85 -102.996 -6.61926 14.85 -102.312 -6.6535 13.86 -103.026 -6.61776 
13.86 -102.312 -6.6535 12.87 -103.07 -6.61554 12.87 -102.312 -6.6535 
11.88 -103.07 -6.61554 11.88 -102.312 -6.6535 10.89 -103.087 -6.6147 
10.89 -102.312 -6.6535 10.098 -102.312 -6.6535 21.505 -101.343 -6.702 
20.79 -102.043 -6.66697 20.79 -101.343 -6.702 19.8 -102.092 -6.66452 
19.8 -101.343 -6.702 18.81 -101.343 -6.702 17.82 -101.343 -6.702 
16.83 -101.343 -6.702 15.84 -101.343 -6.702 14.85 -101.343 -6.702 
13.86 -101.343 -6.702 12.87 -101.343 -6.702 11.88 -101.343 -6.702 
10.89 -101.343 -6.702 9.9 -102.161 -6.66108 9.9 -101.343 -6.702 
8.91 -102.145 -6.66186 8.91 -101.343 -6.702 7.92 -102.139 -6.66216 
7.92 -101.343 -6.702 7.10679 -101.343 -6.702 24.4588 -100.374 -6.7505 
23.76 -101.058 -6.71626 23.76 -100.374 -6.7505 22.77 -101.123 -6.71302 
22.77 -100.374 -6.7505 21.78 -101.196 -6.70935 21.78 -100.374 -6.7505 
20.79 -100.374 -6.7505 19.8 -100.374 -6.7505 18.81 -100.374 -6.7505 
17.82 -100.374 -6.7505 16.83 -100.374 -6.7505 15.84 -100.374 -6.7505 
14.85 -100.374 -6.7505 13.86 -100.374 -6.7505 12.87 -100.374 -6.7505 
11.88 -100.374 -6.7505 10.89 -100.374 -6.7505 9.9 -100.374 -6.7505 
8.91 -100.374 -6.7505 7.92 -100.374 -6.7505 6.93 -101.187 -6.70982 
6.93 -100.374 -6.7505 5.94 -101.17 -6.71066 5.94 -100.374 -6.7505 
4.95 -101.187 -6.70982 4.95 -100.374 -6.7505 3.96 -101.205 -6.70893 
3.96 -100.374 -6.7505 3.11143 -100.374 -6.7505 -17.0007 -100.374 -6.7505 
-17.82 -101.176 -6.71036 -17.82 -100.374 -6.7505 -18.81 -101.182 -6.71008 
-18.81 -100.374 -6.7505 -19.8 -101.164 -6.71098 -19.8 -100.374 -6.7505 
-20.79 -101.149 -6.7117 -20.79 -100.374 -6.7505 -21.78 -101.133 -6.71254 
-21.78 -100.374 -6.7505 -22.77 -101.101 -6.71413 -22.77 -100.374 -6.7505 
-23.76 -101.058 -6.71626 -23.76 -100.374 -6.7505 -24.4588 -100.374 -6.7505 
26.4206 -99.4056 -6.799 25.74 -100.072 -6.76566 25.74 -99.4056 -6.799 
24.75 -100.132 -6.76263 24.75 -99.4056 -6.799 23.76 -99.4056 -6.799 
22.77 -99.4056 -6.799 21.78 -99.4056 -6.799 20.79 -99.4056 -6.799 
19.8 -99.4056 -6.799 18.81 -99.4056 -6.799 17.82 -99.4056 -6.799 
16.83 -99.4056 -6.799 15.84 -99.4056 -6.799 14.85 -99.4056 -6.799 
13.86 -99.4056 -6.799 12.87 -99.4056 -6.799 11.88 -99.4056 -6.799 
10.89 -99.4056 -6.799 9.9 -99.4056 -6.799 8.91 -99.4056 -6.799 
7.92 -99.4056 -6.799 6.93 -99.4056 -6.799 5.94 -99.4056 -6.799 
4.95 -99.4056 -6.799 3.96 -99.4056 -6.799 3.12469 -99.4056 -6.799 
-15.939 -99.4056 -6.799 -16.83 -100.278 -6.75535 -16.83 -99.4056 -6.799 
-17.82 -99.4056 -6.799 -18.81 -99.4056 -6.799 -19.8 -99.4056 -6.799 
-20.79 -99.4056 -6.799 -21.78 -99.4056 -6.799 -22.77 -99.4056 -6.799 
-23.76 -99.4056 -6.799 -24.75 -100.201 -6.75916 -24.75 -99.4056 -6.799 
-25.74 -100.089 -6.76476 -25.74 -99.4056 -6.799 -26.4388 -99.4056 -6.799 
28.3564 -98.4368 -6.8475 27.72 -99.0596 -6.81632 27.72 -98.4368 -6.8475 
26.73 -99.0827 -6.81517 26.73 -98.4368 -6.8475 25.74 -98.4368 -6.8475 
24.75 -98.4368 -6.8475 23.76 -98.4368 -6.8475 22.77 -98.4368 -6.8475 
21.78 -98.4368 -6.8475 20.79 -98.4368 -6.8475 19.8 -98.4368 -6.8475 
18.81 -98.4368 -6.8475 17.82 -98.4368 -6.8475 16.83 -98.4368 -6.8475 
15.84 -98.4368 -6.8475 14.85 -98.4368 -6.8475 13.86 -98.4368 -6.8475 
12.87 -98.4368 -6.8475 11.88 -98.4368 -6.8475 10.89 -98.4368 -6.8475 
9.9 -98.4368 -6.8475 8.91 -98.4368 -6.8475 7.92 -98.4368 -6.8475 
6.93 -98.4368 -6.8475 5.94 -98.4368 -6.8475 4.95 -98.4368 -6.8475 
3.96 -98.4368 -6.8475 3.14069 -98.4368 -6.8475 -14.9325 -98.4368 -6.8475 
-15.84 -99.3249 -6.80304 -15.84 -98.4368 -6.8475 -16.83 -98.4368 -6.8475 
-17.82 -98.4368 -6.8475 -18.81 -98.4368 -6.8475 -19.8 -98.4368 -6.8475 
-20.79 -98.4368 -6.8475 -21.78 -98.4368 -6.8475 -22.77 -98.4368 -6.8475 
-23.76 -98.4368 -6.8475 -24.75 -98.4368 -6.8475 -25.74 -98.4368 -6.8475 
-26.73 -99.1634 -6.81112 -26.73 -98.4368 -6.8475 -27.4725 -98.4368 -6.8475 
28.435 -97.468 -6.896 27.72 -97.468 -6.896 26.73 -97.468 -6.896 
25.74 -97.468 -6.896 24.75 -97.468 -6.896 23.76 -97.468 -6.896 
22.77 -97.468 -6.896 21.78 -97.468 -6.896 20.79 -97.468 -6.896 
19.8 -97.468 -6.896 18.81 -97.468 -6.896 17.82 -97.468 -6.896 
16.83 -97.468 -6.896 15.84 -97.468 -6.896 14.85 -97.468 -6.896 
13.86 -97.468 -6.896 12.87 -97.468 -6.896 11.88 -97.468 -6.896 
10.89 -97.468 -6.896 9.9 -97.468 -6.896 8.91 -97.468 -6.896 
7.92 -97.468 -6.896 6.93 -97.468 -6.896 5.94 -97.468 -6.896 
4.95 -97.468 -6.896 3.96 -97.468 -6.896 3.10378 -97.468 -6.896 
-11.9853 -97.468 -6.896 -12.87 -98.3337 -6.85266 -12.87 -97.468 -6.896 
-13.86 -98.3487 -6.85191 -13.86 -97.468 -6.896 -14.85 -98.3611 -6.85129 
-14.85 -97.468 -6.896 -15.84 -97.468 -6.896 -16.83 -97.468 -6.896 
-17.82 -97.468 -6.896 -18.81 -97.468 -6.896 -19.8 -97.468 -6.896 
-20.79 -97.468 -6.896 -21.78 -97.468 -6.896 -22.77 -97.468 -6.896 
-23.76 -97.468 -6.896 -24.75 -97.468 -6.896 -25.74 -97.468 -6.896 
-26.73 -97.468 -6.896 -27.72 -98.235 -6.8576 -27.72 -97.468 -6.896 
-28.71 -98.134 -6.86266 -28.71 -97.468 -6.896 -29.7 -98.134 -6.86266 
-29.7 -97.468 -6.896 -30.3806 -97.468 -6.896 30.36 -96.4992 -6.9445 
29.7 -97.1451 -6.91217 29.7 -96.4992 -6.9445 28.71 -97.2662 -6.9061 
28.71 -96.4992 -6.9445 27.72 -96.4992 -6.9445 26.73 -96.4992 -6.9445 
25.74 -96.4992 -6.9445 24.75 -96.4992 -6.9445 23.76 -96.4992 -6.9445 
22.77 -96.4992 -6.9445 21.78 -96.4992 -6.9445 20.79 -96.4992 -6.9445 
19.8 -96.4992 -6.9445 18.81 -96.4992 -6.9445 17.82 -96.4992 -6.9445 
16.83 -96.4992 -6.9445 15.84 -96.4992 -6.9445 14.85 -96.4992 -6.9445 
13.86 -96.4992 -6.9445 12.87 -96.4992 -6.9445 11.88 -96.4992 -6.9445 
10.89 -96.4992 -6.9445 9.9 -96.4992 -6.9445 8.91 -96.4992 -6.9445 
7.92 -96.4992 -6.9445 6.93 -96.4992 -6.9445 5.94 -96.4992 -6.9445 
4.95 -96.4992 -6.9445 3.96 -96.4992 -6.9445 2.97 -97.3527 -6.90177 
2.97 -96.4992 -6.9445 1.98 -97.3296 -6.90293 1.98 -96.4992 -6.9445 
1.13143 -96.4992 -6.9445 -11.9497 -96.4992 -6.9445 -12.87 -96.4992 -6.9445 
-13.86 -96.4992 -6.9445 -14.85 -96.4992 -6.9445 -15.84 -96.4992 -6.9445 
-16.83 -96.4992 -6.9445 -17.82 -96.4992 -6.9445 -18.81 -96.4992 -6.9445 
-19.8 -96.4992 -6.9445 -20.79 -96.4992 -6.9445 -21.78 -96.4992 -6.9445 
-22.77 -96.4992 -6.9445 -23.76 -96.4992 -6.9445 -24.75 -96.4992 -6.9445 
-25.74 -96.4992 -6.9445 -26.73 -96.4992 -6.9445 -27.72 -96.4992 -6.9445 
-28.71 -96.4992 -6.9445 -29.7 -96.4992 -6.9445 -30.69 -97.1831 -6.91026 
-30.69 -96.4992 -6.9445 -31.3888 -96.4992 -6.9445 31.4195 -95.5304 -6.993 
30.69 -96.2443 -6.95726 30.69 -95.5304 -6.993 29.7 -95.5304 -6.993 
28.71 -95.5304 -6.993 27.72 -95.5304 -6.993 26.73 -95.5304 -6.993 
25.74 -95.5304 -6.993 24.75 -95.5304 -6.993 23.76 -95.5304 -6.993 
22.77 -95.5304 -6.993 21.78 -95.5304 -6.993 20.79 -95.5304 -6.993 
19.8 -95.5304 -6.993 18.81 -95.5304 -6.993 17.82 -95.5304 -6.993 
16.83 -95.5304 -6.993 15.84 -95.5304 -6.993 14.85 -95.5304 -6.993 
13.86 -95.5304 -6.993 12.87 -95.5304 -6.993 11.88 -95.5304 -6.993 
10.89 -95.5304 -6.993 9.9 -95.5304 -6.993 8.91 -95.5304 -6.993 
7.92 -95.5304 -6.993 6.93 -95.5304 -6.993 5.94 -95.5304 -6.993 
4.95 -95.5304 -6.993 3.96 -95.5304 -6.993 2.97 -95.5304 -6.993 
1.98 -95.5304 -6.993 1.07534 -95.5304 -6.993 -2.0625 -95.5304 -6.993 
-2.97 -96.4185 -6.94854 -2.97 -95.5304 -6.993 -3.8775 -95.5304 -6.993 
-12.87 -95.5986 -6.98958 -13.86 -95.5977 -6.98963 -13.9278 -95.5304 -6.993 
-14.85 -95.5304 -6.993 -15.84 -95.5304 -6.993 -16.83 -95.5304 -6.993 
-17.82 -95.5304 -6.993 -18.81 -95.5304 -6.993 -19.8 -95.5304 -6.993 
-20.79 -95.5304 -6.993 -21.78 -95.5304 -6.993 -22.77 -95.5304 -6.993 
-23.76 -95.5304 -6.993 -24.75 -95.5304 -6.993 -25.74 -95.5304 -6.993 
-26.73 -95.5304 -6.993 -27.72 -95.5304 -6.993 -28.71 -95.5304 -6.993 
-29.7 -95.5304 -6.993 -30.69 -95.5304 -6.993 -31.68 -96.2974 -6.9546 
-31.68 -95.5304 -6.993 -32.67 -96.1763 -6.96067 -32.67 -95.5304 -6.993 
-33.33 -95.5304 -6.993 31.5462 -94.5616 -7.0415 30.69 -94.5616 -7.0415 
29.7 -94.5616 -7.0415 28.71 -94.5616 -7.0415 27.72 -94.5616 -7.0415 
26.73 -94.5616 -7.0415 25.74 -94.5616 -7.0415 24.75 -94.5616 -7.0415 
23.76 -94.5616 -7.0415 22.77 -94.5616 -7.0415 21.78 -94.5616 -7.0415 
20.79 -94.5616 -7.0415 19.8 -94.5616 -7.0415 18.81 -94.5616 -7.0415 
17.82 -94.5616 -7.0415 16.83 -94.5616 -7.0415 15.84 -94.5616 -7.0415 
14.85 -94.5616 -7.0415 13.86 -94.5616 -7.0415 12.87 -94.5616 -7.0415 
11.88 -94.5616 -7.0415 10.89 -94.5616 -7.0415 9.9 -94.5616 -7.0415 
8.91 -94.5616 -7.0415 7.92 -94.5616 -7.0415 6.93 -94.5616 -7.0415 
5.94 -94.5616 -7.0415 4.95 -94.5616 -7.0415 3.96 -94.5616 -7.0415 
2.97 -94.5616 -7.0415 1.98 -94.5616 -7.0415 1.04964 -94.5616 -7.0415 
-2.04972 -94.5616 -7.0415 -2.97 -94.5616 -7.0415 -3.89028 -94.5616 -7.0415 
-11.9668 -94.5616 -7.0415 -12.87 -95.4454 -6.99725 -12.87 -94.5616 -7.0415 
-13.86 -95.4469 -6.99718 -13.86 -94.5616 -7.0415 -14.85 -94.5616 -7.0415 
-15.84 -94.5616 -7.0415 -16.83 -94.5616 -7.0415 -17.82 -94.5616 -7.0415 
-18.81 -94.5616 -7.0415 -19.8 -94.5616 -7.0415 -20.79 -94.5616 -7.0415 
-21.78 -94.5616 -7.0415 -22.77 -94.5616 -7.0415 -23.76 -94.5616 -7.0415 
-24.75 -94.5616 -7.0415 -25.74 -94.5616 -7.0415 -26.73 -94.5616 -7.0415 
-27.72 -94.5616 -7.0415 -28.71 -94.5616 -7.0415 -29.7 -94.5616 -7.0415 
-30.69 -94.5616 -7.0415 -31.68 -94.5616 -7.0415 -32.67 -94.5616 -7.0415 
-33.66 -95.2755 -7.00576 -33.66 -94.5616 -7.0415 -34.3895 -94.5616 -7.0415 
32.5493 -93.5928 -7.09 31.68 -94.4435 -7.04741 31.68 -93.5928 -7.09 
30.69 -93.5928 -7.09 29.7 -93.5928 -7.09 28.71 -93.5928 -7.09 
27.72 -93.5928 -7.09 26.73 -93.5928 -7.09 25.74 -93.5928 -7.09 
24.75 -93.5928 -7.09 23.76 -93.5928 -7.09 22.77 -93.5928 -7.09 
21.78 -93.5928 -7.09 20.79 -93.5928 -7.09 19.8 -93.5928 -7.09 
18.81 -93.5928 -7.09 17.82 -93.5928 -7.09 16.83 -93.5928 -7.09 
[...]
POINT_DATA 18154
SCALARS scalars float
LOOKUP_TABLE default
5 5 15 5 16 5 18 5 18 
5 17 5 19 5 23 5 23 5 
25 5 5 5 18 5 22 26 33 
38 41 41 42 45 42 36 5 32 
5 29 5 28 5 5 5 17 5 
22 5 33 46 59 69 76 81 85 
84 82 83 80 72 63 52 41 5 
31 5 28 5 31 5 35 5 5 
5 29 5 30 5 27 5 25 5 
23 5 20 5 17 5 5 5 16 
5 20 35 57 76 85 91 95 96 
97 99 99 99 100 98 94 88 80 
66 48 35 32 32 5 5 5 50 
65 70 67 63 63 58 43 5 28 
5 17 5 5 5 14 5 15 24 
48 77 90 94 97 99 101 103 106 
106 106 108 109 106 103 100 95 88 
70 48 37 29 5 5 5 60 76 
88 93 94 92 93 94 87 70 43 
5 20 5 5 18 29 53 81 96 
99 102 106 105 106 108 109 110 111 
112 112 111 110 107 104 100 88 71 
51 37 5 5 5 47 5 55 5 
64 77 87 94 98 99 100 102 101 
98 94 78 47 5 24 5 16 5 
16 5 5 5 15 5 24 39 53 
69 89 98 103 108 107 103 102 104 
108 110 111 109 107 109 112 108 104 
102 97 88 72 54 5 42 5 35 
5 5 71 72 75 84 93 97 101 
103 103 106 107 105 101 92 75 59 
43 25 5 17 5 5 5 19 30 
51 67 70 78 92 102 108 109 105 
99 95 100 105 107 107 102 98 102 
109 108 101 98 93 87 78 72 68 
58 5 5 5 60 5 5 5 5 
73 85 95 100 104 106 106 109 111 
111 104 98 91 85 81 65 42 5 
24 5 15 5 5 37 62 75 83 
85 88 95 105 111 110 103 95 90 
97 103 106 106 98 92 94 104 109 
101 96 91 80 67 74 82 83 5 
5 71 5 5 5 57 5 58 69 
85 98 102 104 105 109 112 112 112 
112 105 102 100 97 92 81 56 29 
5 19 5 5 5 41 68 83 89 
93 95 96 101 110 111 109 103 92 
85 91 97 101 98 92 88 90 100 
107 102 94 87 70 55 61 73 81 
5 77 5 5 63 5 5 60 59 
69 85 99 102 103 105 109 109 112 
114 116 114 112 109 104 100 97 82 
58 40 5 23 5 13 5 5 5 
22 5 43 70 87 92 99 105 107 
108 111 111 110 110 105 95 87 85 
90 92 87 84 84 91 99 105 101 
92 84 70 64 66 70 75 71 5 
67 5 5 61 5 5 5 61 61 
60 71 85 94 98 101 105 107 105 
106 110 116 116 115 112 109 104 99 
88 70 58 49 26 5 5 5 24 
46 71 87 94 99 108 113 112 108 
108 107 109 111 109 101 92 88 88 
85 77 77 86 93 101 103 99 94 
88 85 85 82 78 74 70 67 5 
5 54 5 5 5 68 5 5 5 
5 75 82 92 98 100 102 98 97 
97 105 114 113 108 103 99 91 81 
68 61 61 49 5 28 5 16 5 
5 5 15 5 27 52 75 87 95 
100 108 113 113 109 101 96 95 99 
106 110 109 103 96 95 90 76 71 
86 96 102 104 99 96 94 92 89 
85 79 72 67 65 5 5 49 5 
5 68 5 64 5 62 63 69 77 
82 86 89 89 88 89 99 111 106 
101 94 81 74 72 68 63 59 56 
46 28 5 17 5 5 5 18 32 
56 79 90 96 101 107 113 114 110 
104 96 88 84 87 95 104 110 111 
104 98 94 84 71 81 96 99 102 
100 97 95 91 90 84 76 68 64 
61 5 5 52 5 5 69 64 60 
58 60 61 62 67 78 86 90 92 
101 106 100 93 79 71 77 84 83 
80 70 61 55 47 30 5 18 5 
17 5 5 34 57 78 92 97 102 
108 112 114 113 110 106 98 89 82 
79 83 92 101 109 110 104 97 89 
79 78 92 95 97 99 98 94 91 
86 82 74 65 62 61 5 5 56 
5 5 67 5 5 5 5 58 60 
65 69 70 81 93 98 98 103 103 
94 82 75 84 94 95 92 90 86 
76 66 59 52 34 20 5 16 5 
5 5 18 5 33 56 75 90 98 
102 107 109 109 109 109 110 109 105 
96 90 85 80 82 90 98 107 109 
103 95 86 77 81 92 95 97 97 
91 88 83 77 71 62 59 60 5 
5 62 5 5 65 5 5 5 55 
56 55 59 66 70 77 89 96 99 
97 90 82 78 85 94 98 99 98 
95 90 80 70 62 58 56 42 23 
5 5 5 14 5 20 37 49 67 
87 97 101 104 102 99 99 102 102 
104 106 107 102 99 94 87 80 81 
88 98 105 104 97 89 80 74 82 
91 94 94 90 84 79 73 67 63 
62 60 5 60 5 5 64 5 5 
5 73 5 75 5 74 5 69 61 
5 57 61 69 71 68 63 65 69 
76 83 84 81 82 84 88 96 99 
103 108 104 97 91 83 75 67 58 
59 59 48 5 27 5 13 5 5 
5 17 28 47 58 54 71 91 97 
99 102 95 88 85 87 92 95 96 
96 97 99 95 90 85 79 80 88 
98 104 99 90 85 72 65 79 87 
88 87 83 77 70 64 61 59 58 
58 5 5 65 5 5 5 78 75 
67 62 67 73 78 84 86 81 72 
60 59 68 72 77 85 92 96 100 
105 109 112 105 95 89 85 83 80 
73 64 59 58 46 24 5 5 5 
5 5 5 54 66 87 94 94 96 
90 82 75 72 73 79 82 82 86 
90 91 91 90 84 77 81 90 96 
99 94 87 74 56 61 77 81 80 
75 70 67 67 63 59 59 60 5 
5 67 5 5 5 75 76 71 67 
72 80 84 87 91 92 91 90 72 
55 62 79 88 90 93 97 100 103 
106 112 108 98 91 88 89 90 85 
79 70 65 62 48 5 25 5 5 
5 76 5 74 5 72 58 54 74 
90 92 93 92 88 82 75 70 75 
82 82 84 85 85 87 91 89 80 
75 82 87 91 92 87 81 69 60 
65 70 71 69 64 62 64 62 59 
62 64 5 67 67 5 68 5 67 
5 66 5 68 5 71 75 73 70 
73 80 85 87 89 94 96 95 93 
79 67 77 93 95 95 96 97 101 
102 103 107 109 104 99 95 94 93 
89 87 87 84 82 74 53 5 26 
5 5 5 5 63 58 51 59 74 
85 88 89 91 90 85 82 85 91 
90 90 89 88 90 92 90 83 66 
65 78 84 88 88 82 77 64 57 
61 63 60 57 54 59 62 61 65 
67 66 68 71 69 63 66 70 70 
71 73 76 80 86 90 92 94 93 
95 86 74 73 86 94 95 99 97 
95 95 98 100 103 109 108 105 104 
103 100 97 95 94 94 93 91 81 
54 5 23 5 5 5 59 61 66 
68 61 62 75 83 86 88 88 86 
84 87 94 99 100 100 99 100 96 
90 83 62 48 58 71 81 84 80 
76 68 58 59 62 60 60 54 52 
56 60 63 67 63 67 72 71 60 
62 68 69 73 75 77 84 86 87 
89 89 88 87 76 69 76 92 95 
99 103 100 95 91 91 94 97 103 
108 111 110 108 106 105 104 100 96 
94 94 92 79 45 5 19 5 5 
5 63 5 73 76 78 82 83 78 
70 72 81 84 86 87 86 85 89 
98 107 108 107 104 101 94 86 75 
58 53 57 59 67 73 76 74 69 
63 60 59 59 60 56 52 50 55 
56 63 64 61 67 67 56 55 67 
71 74 73 73 80 84 79 79 77 
77 76 68 65 81 97 98 101 103 
102 97 92 89 87 93 97 101 107 
107 108 110 108 107 105 101 101 95 
91 86 69 36 5 5 77 87 87 
89 90 87 85 81 78 80 84 87 
88 87 88 94 102 109 108 103 98 
92 85 78 68 67 74 76 72 68 
69 69 70 69 5 5 5 5 5 
5 5 5 5 5 5 50 5 5 
5 5 56 5 5 5 5 5 5 
5 5 5 5 5 5 75 70 68 
63 60 59 56 62 87 96 98 102 
102 100 96 88 81 78 86 92 96 
98 101 105 108 108 108 105 104 103 
97 93 90 82 58 5 25 5 5 
84 90 91 94 94 91 90 89 88 
89 90 90 90 91 93 99 107 108 
103 97 90 85 76 68 72 80 83 
83 82 80 5 5 5 5 5 5 
51 5 5 5 5 64 61 58 53 
50 46 58 87 95 98 105 105 101 
96 87 76 73 79 81 87 92 95 
99 104 104 104 103 103 102 98 93 
91 87 76 46 5 5 5 30 5 
46 5 5 5 41 5 61 83 90 
92 97 100 98 97 97 96 97 97 
96 97 99 102 106 109 106 98 90 
84 76 65 5 5 5 5 5 5 
5 5 5 53 5 5 5 75 77 
72 64 51 56 82 95 97 105 108 
105 98 89 83 80 77 77 78 81 
87 91 94 95 96 97 98 99 100 
96 92 90 84 65 5 5 5 19 
5 34 54 62 5 55 50 60 81 
90 91 97 104 104 102 103 101 102 
102 103 104 104 105 106 104 101 92 
87 80 61 61 5 5 52 5 5 
5 5 5 5 5 58 77 93 96 
103 109 109 103 95 91 89 85 84 
80 75 78 81 83 86 86 86 88 
94 101 98 92 91 84 75 5 5 
5 19 38 63 78 81 77 64 60 
79 88 90 98 106 107 106 106 104 
105 105 105 105 105 103 100 95 93 
87 85 73 56 64 5 5 5 61 
73 90 94 101 109 110 109 103 97 
95 92 92 88 82 80 78 75 71 
70 76 83 89 99 98 92 91 83 
77 5 5 5 18 40 65 82 86 
86 86 78 68 77 86 89 97 105 
107 106 104 102 103 104 103 101 98 
94 89 85 83 79 74 66 61 5 
5 5 63 68 87 94 98 105 109 
110 109 106 102 99 97 95 92 89 
84 76 62 60 75 85 91 99 100 
93 90 85 74 5 5 38 67 81 
88 88 88 87 82 73 74 83 88 
93 104 108 104 101 95 93 95 95 
94 93 87 82 79 76 72 64 58 
5 5 5 5 65 86 93 96 104 
109 108 108 107 106 105 107 104 101 
94 90 84 72 72 83 89 94 100 
99 92 89 82 67 5 5 5 27 
64 81 88 91 92 91 88 84 78 
77 83 89 94 103 106 104 99 91 
87 87 88 90 89 86 84 81 78 
74 65 56 5 5 63 80 92 96 
102 107 107 109 108 106 107 110 110 
107 98 92 86 78 79 87 90 97 
102 100 92 88 78 61 5 5 5 
23 49 79 84 88 92 95 93 88 
84 81 81 83 89 96 104 109 107 
101 92 85 82 82 84 88 90 87 
83 83 82 74 62 5 5 61 71 
89 94 99 103 102 101 103 105 109 
112 112 108 97 90 85 78 80 87 
94 100 105 102 92 88 78 60 5 
5 5 22 40 62 79 85 90 94 
97 92 86 81 80 82 84 90 96 
104 109 108 104 95 87 82 81 82 
87 92 91 89 86 85 80 5 5 
5 60 66 83 92 94 96 94 93 
94 98 106 110 111 107 97 89 84 
77 79 86 93 101 105 101 92 88 
83 61 5 5 5 14 5 5 5 
20 39 55 69 84 86 90 97 99 
92 84 80 79 82 86 91 97 105 
109 110 105 101 95 89 88 87 89 
93 93 90 87 84 79 5 5 59 
55 68 80 83 85 83 82 85 92 
104 109 112 109 97 90 82 74 77 
84 91 100 104 101 95 89 84 60 
5 50 5 42 23 5 5 5 16 
37 61 61 73 87 87 92 100 100 
90 84 81 80 83 88 92 99 105 
110 111 108 106 101 95 93 94 95 
96 95 91 87 85 78 5 5 61 
47 53 65 70 73 75 76 82 88 
101 114 114 107 97 89 81 76 77 
83 91 98 104 101 92 89 81 64 
64 69 50 5 24 5 13 5 5 
24 55 74 65 73 86 88 94 102 
101 90 82 78 77 82 87 92 100 
107 111 111 107 106 105 103 100 101 
102 100 95 90 88 86 75 5 5 
59 57 68 75 78 80 85 84 84 
90 104 114 113 105 94 87 81 76 
77 84 89 95 104 100 91 86 78 
74 81 87 81 55 27 5 5 5 
19 36 62 69 66 74 83 90 100 
104 98 88 79 72 74 80 86 92 
101 107 110 107 102 103 103 103 104 
104 104 101 93 88 87 81 66 5 
5 62 74 84 85 87 88 90 90 
91 98 109 113 113 104 92 86 81 
77 80 86 89 95 102 97 90 84 
79 81 88 91 90 82 60 5 34 
5 5 5 15 5 18 36 55 66 
70 74 80 85 94 104 101 91 83 
76 71 75 82 90 96 103 107 107 
103 97 95 97 101 104 105 103 99 
90 87 85 74 62 5 5 71 82 
85 85 85 86 88 91 94 101 110 
112 112 103 93 86 81 77 79 85 
88 96 102 95 89 81 76 83 89 
90 92 89 83 67 5 39 5 5 
5 15 17 37 63 76 80 81 82 
85 90 100 103 94 83 76 71 73 
79 86 93 100 107 108 102 97 89 
85 88 96 102 105 101 95 87 85 
80 69 66 5 5 77 80 84 87 
89 87 85 86 90 96 104 110 112 
106 96 87 82 76 78 84 86 92 
100 96 87 77 74 85 90 91 92 
91 87 80 65 5 5 18 36 67 
81 83 85 85 87 92 98 103 99 
90 81 72 65 74 81 88 95 103 
109 109 100 91 81 81 85 92 99 
106 101 93 88 84 74 65 71 5 
5 5 73 77 75 83 89 94 91 
86 82 84 86 94 106 112 107 98 
90 81 74 75 81 85 90 98 99 
91 81 78 87 91 94 93 90 88 
80 70 5 56 5 5 32 64 80 
82 84 87 89 96 100 102 102 93 
85 79 70 65 74 82 89 96 104 
108 105 96 88 78 76 82 91 97 
104 99 91 88 82 70 64 74 5 
5 71 73 73 83 89 94 95 93 
89 86 83 87 99 110 112 104 94 
86 78 75 80 82 86 94 99 95 
90 88 91 95 96 90 88 86 78 
68 61 5 5 5 16 5 16 5 
26 56 75 81 85 87 88 89 95 
95 96 96 90 83 80 74 72 74 
80 86 95 104 108 106 97 89 79 
72 78 89 94 98 96 88 86 83 
73 65 72 5 5 75 72 79 88 
90 94 97 96 93 90 87 87 95 
107 113 109 99 90 83 77 76 78 
81 88 94 97 97 95 95 94 90 
86 83 78 72 64 61 5 62 5 
5 16 29 54 69 76 81 84 83 
83 85 88 88 89 91 88 83 82 
79 76 77 81 86 92 101 109 109 
100 92 85 77 77 85 92 95 95 
89 86 84 74 63 70 5 5 71 
72 81 87 89 93 99 99 96 91 
89 89 95 104 112 114 106 96 89 
84 78 76 78 83 89 93 93 92 
90 87 85 81 76 73 68 64 61 
65 5 70 5 55 5 5 5 14 
29 59 78 78 82 81 79 76 76 
80 84 82 83 85 84 83 83 81 
79 79 81 85 91 99 110 112 106 
96 89 83 76 79 87 93 95 90 
87 84 71 58 66 5 5 69 74 
82 85 90 91 96 96 93 89 86 
89 95 102 111 115 111 104 95 87 
83 78 75 79 83 85 84 84 85 
83 79 75 69 72 73 73 69 69 
73 68 5 40 5 5 5 12 23 
53 82 87 87 85 81 79 74 70 
72 76 78 79 79 81 81 79 79 
81 81 83 86 91 99 109 113 112 
102 91 85 77 79 86 90 96 91 
88 86 76 59 59 5 5 71 73 
79 86 91 92 96 96 90 85 82 
83 87 94 103 108 112 112 104 92 
88 84 77 74 75 78 79 79 81 
76 67 65 71 79 83 82 80 76 
71 68 52 5 26 5 5 16 40 
75 87 85 91 88 84 82 78 72 
72 72 74 77 79 77 75 72 74 
78 81 85 89 93 101 109 114 114 
105 93 84 75 77 85 89 96 95 
89 88 85 72 60 5 5 64 69 
77 86 90 94 95 97 91 87 84 
82 82 88 95 102 110 112 109 99 
91 86 80 70 70 76 79 78 77 
72 65 68 79 85 87 87 86 86 
82 74 62 41 5 5 5 15 26 
59 85 86 89 96 99 95 88 83 
80 79 78 76 77 79 77 74 68 
69 79 84 87 91 97 104 111 113 
112 104 91 81 76 79 86 89 94 
96 91 89 86 78 62 5 5 57 
66 79 85 87 93 97 99 93 90 
88 86 84 86 91 99 107 111 110 
97 88 85 80 72 77 82 82 81 
78 72 71 80 86 87 90 92 92 
90 87 82 76 58 5 29 5 5 
5 18 15 32 69 86 85 91 97 
104 107 102 96 91 87 84 80 80 
80 80 78 71 67 79 85 86 92 
101 108 110 111 113 105 89 79 77 
81 87 89 95 95 92 88 86 81 
65 5 59 5 5 5 58 55 68 
79 84 86 90 95 99 99 95 93 
92 92 92 96 103 109 113 107 94 
85 84 80 80 85 86 88 87 85 
81 81 86 90 95 99 101 99 94 
89 86 84 70 42 5 5 16 17 
37 68 84 88 88 91 100 107 111 
112 106 100 94 89 88 85 83 82 
80 71 76 85 87 90 101 110 110 
110 114 105 90 81 78 80 85 89 
95 94 92 89 85 82 73 61 5 
63 5 5 46 55 69 77 84 86 
88 95 101 102 100 100 101 101 103 
106 112 114 109 97 89 82 79 81 
87 89 92 94 94 92 90 91 95 
101 104 106 106 102 96 92 90 86 
77 55 5 5 5 20 15 25 45 
61 77 88 84 87 93 98 106 111 
110 112 108 104 100 95 91 86 84 
78 75 79 86 92 101 106 109 111 
113 107 92 82 80 81 84 89 92 
92 90 88 85 81 75 65 69 5 
5 48 57 69 78 84 87 90 95 
101 104 103 103 105 107 107 109 115 
115 101 88 83 79 79 84 88 93 
99 100 100 100 101 103 107 111 111 
109 105 98 94 90 87 86 79 60 
5 30 5 5 15 18 37 51 48 
62 80 81 84 82 86 96 105 112 
112 112 111 109 106 100 91 85 82 
77 76 82 89 96 102 106 108 109 
110 100 86 80 79 84 88 89 89 
88 84 82 76 70 63 73 5 5 
56 64 71 78 83 86 90 95 101 
100 100 102 104 108 109 112 116 109 
91 79 71 74 82 86 89 95 100 
103 105 109 111 113 113 113 110 104 
98 94 90 88 86 84 74 57 36 
5 19 5 5 5 17 15 28 49 
55 47 52 62 71 78 81 83 84 
94 108 113 112 112 112 109 106 97 
88 84 79 78 81 87 93 102 101 
100 105 110 105 91 80 78 82 87 
90 89 87 82 75 66 61 55 66 
5 5 61 64 71 80 84 86 91 
96 101 100 97 96 99 106 111 113 
113 103 88 73 66 76 85 88 89 
92 97 98 102 109 113 114 112 109 
103 98 92 92 89 87 81 74 64 
53 45 29 5 15 5 5 5 15 
14 18 44 60 62 64 61 55 56 
63 73 79 82 85 95 109 114 114 
113 110 106 100 90 85 79 78 81 
86 91 96 93 94 99 106 109 99 
84 81 82 86 87 88 86 82 74 
62 57 54 58 5 70 5 5 65 
63 71 82 86 87 94 100 104 102 
95 91 94 101 110 115 114 101 87 
74 72 79 84 84 87 88 88 90 
95 105 112 114 111 105 98 91 86 
83 80 77 72 67 67 63 61 49 
24 5 5 13 13 33 63 73 74 
77 75 71 62 59 62 71 79 83 
87 102 113 114 114 111 107 101 90 
85 79 77 80 86 90 92 89 89 
92 99 108 106 92 85 83 83 83 
87 85 83 80 73 68 66 63 66 
5 5 69 67 74 82 89 91 97 
104 107 104 95 89 90 96 107 114 
114 101 86 78 75 79 80 79 81 
79 77 82 91 104 112 113 109 99 
90 85 81 76 72 71 74 75 80 
80 76 68 45 5 21 5 5 12 
21 56 76 78 80 80 78 78 73 
68 64 69 76 81 86 96 107 114 
114 111 106 98 87 83 78 72 76 
85 86 86 87 85 87 95 107 112 
103 92 86 85 85 87 86 85 83 
81 79 77 71 66 5 69 5 5 
68 67 75 83 90 93 100 107 110 
107 100 93 90 92 102 111 116 106 
90 81 78 80 79 77 73 67 69 
79 90 105 114 112 103 92 84 78 
75 70 72 77 81 84 84 85 83 
78 64 44 5 5 13 36 71 81 
81 83 81 80 79 79 75 73 73 
78 83 87 92 102 113 116 112 107 
96 86 83 76 67 68 78 82 81 
82 82 83 89 102 113 112 105 98 
93 91 91 91 90 87 84 80 79 
76 69 65 5 68 5 5 69 70 
80 86 90 96 106 111 111 109 103 
96 94 94 99 108 116 113 101 87 
81 80 79 78 70 60 71 84 94 
107 115 109 95 86 81 73 69 71 
80 82 84 87 87 86 85 80 71 
61 5 42 5 5 5 12 18 55 
79 82 83 84 81 79 77 79 77 
76 79 82 84 87 90 99 108 114 
113 110 98 86 83 77 67 63 71 
76 76 76 78 81 84 95 109 114 
111 110 105 102 101 101 99 94 88 
84 81 76 73 69 72 5 5 65 
69 80 86 93 101 109 113 113 112 
108 101 98 97 98 104 112 115 112 
100 93 88 84 85 76 63 75 88 
100 111 115 107 93 82 76 69 70 
80 85 88 89 89 87 87 85 82 
76 64 58 5 5 11 28 69 84 
85 83 81 80 79 78 79 80 80 
82 86 88 91 97 100 106 112 114 
113 105 90 84 79 73 69 70 69 
73 73 72 76 79 89 103 113 111 
111 106 105 104 104 102 96 90 86 
82 79 76 70 70 5 5 5 77 
66 70 81 87 94 104 112 112 113 
115 111 105 100 97 95 99 106 112 
113 112 107 96 85 85 77 70 77 
90 105 115 115 102 89 81 75 74 
80 85 89 96 99 99 95 90 87 
84 81 68 66 5 48 5 5 14 
41 74 83 85 84 79 78 77 80 
79 83 84 87 92 94 96 101 104 
109 113 114 113 110 99 88 84 83 
80 79 74 75 74 67 70 78 86 
101 114 110 107 103 100 98 97 94 
90 86 85 83 81 77 71 66 5 
5 5 66 75 83 87 94 103 111 
112 110 112 109 107 100 97 95 95 
103 113 115 114 111 97 85 82 77 
80 86 96 111 115 114 104 91 84 
82 85 89 94 103 106 109 111 107 
101 94 87 83 74 74 59 5 27 
5 5 16 51 77 83 85 85 81 
77 75 80 82 85 89 91 96 98 
102 106 108 109 112 114 114 113 110 
102 94 90 88 86 83 81 79 70 
69 77 87 102 113 109 107 101 96 
92 89 86 84 80 78 77 79 76 
72 65 5 5 63 77 84 87 94 
102 108 109 109 108 106 105 99 95 
95 93 100 110 115 113 105 91 84 
80 79 83 90 104 116 116 114 111 
101 96 94 97 101 108 115 113 113 
114 113 111 104 95 88 81 79 71 
34 5 5 5 12 17 56 77 83 
84 82 80 79 76 79 85 87 93 
96 101 103 106 109 109 111 113 113 
111 112 114 114 108 103 100 96 92 
85 83 79 74 79 87 104 114 113 
112 105 96 91 88 84 81 78 77 
76 78 78 73 63 5 5 5 66 
66 77 85 88 93 99 103 106 107 
105 104 104 100 96 95 95 101 109 
114 112 103 87 80 78 80 87 100 
113 117 116 115 114 109 107 107 110 
115 114 114 114 110 107 103 103 104 
100 91 85 82 78 42 5 5 12 
19 59 79 82 84 82 79 78 78 
80 86 92 96 100 105 108 108 108 
109 111 113 113 112 113 113 114 112 
111 109 108 104 96 88 83 80 83 
92 108 113 113 113 109 104 99 93 
89 83 80 78 78 80 81 77 69 
5 65 5 5 62 71 80 83 87 
91 97 101 104 105 104 102 102 100 
97 97 99 106 111 116 113 103 87 
81 81 87 98 110 115 116 114 115 
116 114 113 115 117 118 116 114 108 
98 93 91 90 92 93 90 85 83 
81 50 5 5 12 19 58 77 79 
82 82 79 78 81 82 87 93 99 
104 106 110 110 108 107 107 107 112 
113 112 113 114 116 115 113 113 110 
105 99 91 87 90 101 110 112 114 
114 111 109 108 104 101 96 92 87 
84 82 82 80 73 66 5 64 5 
5 63 74 83 85 87 91 94 98 
100 102 103 104 104 104 103 102 105 
111 110 115 116 109 94 88 88 96 
108 114 117 119 115 115 116 115 115 
116 117 118 115 107 95 87 83 83 
84 85 85 87 86 84 82 55 5 
5 12 20 57 74 78 81 80 77 
77 80 83 88 92 99 106 110 111 
110 105 103 102 103 109 114 113 114 
114 115 115 113 113 111 109 106 105 
103 107 111 111 111 114 114 112 111 
110 110 107 106 106 100 95 89 84 
79 76 69 59 5 5 68 77 84 
87 89 93 94 99 102 104 107 109 
111 112 111 110 110 113 111 114 116 
112 102 97 98 106 113 115 116 118 
116 116 116 115 115 117 116 116 108 
96 86 82 79 79 80 81 83 85 
84 83 80 55 5 5 14 19 54 
77 83 83 80 74 69 73 80 86 
90 97 106 112 113 111 105 101 99 
100 103 111 114 114 114 113 113 112 
113 113 111 111 112 111 114 114 113 
112 112 114 113 111 108 108 103 103 
104 104 102 96 88 80 77 73 57 
5 5 5 59 68 79 82 84 90 
95 97 103 107 110 114 113 114 113 
112 111 112 112 112 114 116 112 111 
111 111 113 116 117 117 118 117 116 
115 115 115 115 114 112 100 89 84 
81 77 76 77 78 80 79 80 79 
71 50 5 22 5 5 16 23 61 
82 86 84 83 78 68 66 74 82 
88 95 105 112 116 112 105 100 97 
96 98 104 112 114 114 115 114 111 
110 112 114 113 112 112 113 113 112 
112 112 113 111 107 99 97 93 91 
93 98 101 100 91 82 76 72 61 
5 5 60 66 75 80 84 90 95 
101 108 109 109 109 107 105 103 101 
104 111 110 113 114 115 115 116 117 
115 117 118 117 117 116 116 115 115 
114 114 115 115 109 93 84 81 79 
78 78 77 78 77 74 74 72 61 
47 25 5 5 15 28 70 89 89 
87 86 84 79 72 74 78 85 92 
102 112 115 113 108 102 96 92 91 
96 109 115 116 115 114 109 104 109 
113 112 111 110 110 109 111 113 114 
112 106 97 90 88 86 81 84 89 
93 96 92 85 79 74 68 5 5 
5 63 5 5 5 60 63 62 68 
80 85 88 92 99 99 97 96 94 
92 92 91 91 96 102 108 111 114 
115 117 116 113 113 117 118 117 116 
117 116 115 117 115 114 114 114 107 
91 83 79 78 79 80 79 80 80 
79 78 77 70 55 27 5 5 14 
33 73 90 91 91 90 86 85 80 
77 75 80 89 103 113 113 112 107 
101 91 86 84 88 104 114 117 116 
114 110 103 106 111 111 109 108 107 
107 112 114 114 109 97 86 81 80 
81 81 82 83 85 88 89 85 81 
77 72 5 5 60 5 5 58 68 
59 56 73 84 86 87 92 87 85 
87 85 84 85 86 85 87 92 104 
110 112 114 116 115 114 115 117 117 
116 116 116 116 117 117 117 114 113 
115 111 96 84 79 79 80 80 80 
82 85 87 88 88 86 74 36 5 
5 15 36 72 87 92 95 96 91 
88 85 82 80 85 95 109 115 113 
109 102 95 86 81 80 84 101 112 
115 116 115 110 104 101 105 109 109 
107 105 104 110 113 113 108 96 85 
80 79 78 80 81 81 80 82 84 
82 82 78 75 5 67 61 5 5 
60 74 59 49 62 78 83 84 85 
81 79 81 80 80 82 82 81 83 
87 100 110 112 114 117 118 118 118 
118 119 119 119 117 115 116 116 114 
112 113 115 114 102 86 82 80 79 
80 83 86 89 90 92 90 90 86 
50 5 5 15 37 69 85 91 98 
105 102 97 94 91 91 96 107 114 
111 109 104 96 87 82 79 79 83 
102 113 116 115 114 107 99 95 97 
102 103 101 101 103 111 115 114 108 
98 87 80 78 77 79 81 82 80 
80 80 81 81 75 73 72 65 5 
5 5 62 66 76 67 61 59 69 
80 82 80 73 67 69 73 76 78 
76 77 81 86 100 111 113 113 115 
115 116 116 118 119 118 117 117 116 
115 117 115 112 113 115 116 107 90 
84 82 80 80 84 87 90 92 96 
93 91 87 60 5 18 5 5 17 
42 72 87 93 101 111 113 110 109 
108 109 112 114 115 110 103 96 89 
83 78 75 80 85 104 114 115 115 
114 107 96 90 89 92 95 96 96 
102 112 114 111 110 104 90 83 80 
78 78 78 79 79 78 76 77 77 
71 70 75 71 5 5 5 44 53 
67 74 75 75 68 66 73 74 70 
67 64 65 68 69 73 73 76 81 
84 99 114 115 112 113 112 113 117 
118 119 116 114 116 118 117 117 113 