# vtk DataFile Version 4.0
vtk output
ASCII
DATASET POLYDATA
POINTS 18676 float
15.565 -103.239 -5.766 14.85 -103.938 -5.73097 14.85 -103.239 -5.766 
13.86 -104.006 -5.7276 13.86 -103.239 -5.766 12.87 -104.021 -5.72683 
12.87 -103.239 -5.766 12.0704 -103.239 -5.766 20.4806 -102.27 -5.8145 
19.8 -102.936 -5.78116 19.8 -102.27 -5.8145 18.81 -102.936 -5.78116 
18.81 -102.27 -5.8145 17.82 -102.997 -5.77812 17.82 -102.27 -5.8145 
16.83 -103.028 -5.77654 16.83 -102.27 -5.8145 15.84 -103.008 -5.77755 
15.84 -102.27 -5.8145 14.85 -102.27 -5.8145 13.86 -102.27 -5.8145 
12.87 -102.27 -5.8145 11.88 -103.077 -5.77408 11.88 -102.27 -5.8145 
10.89 -103.072 -5.77436 10.89 -102.27 -5.8145 9.9 -103.083 -5.77382 
9.9 -102.27 -5.8145 8.91 -103.087 -5.77358 8.91 -102.27 -5.8145 
7.92 -103.083 -5.77382 7.92 -102.27 -5.8145 7.08968 -102.27 -5.8145 
23.4064 -101.301 -5.863 22.77 -101.924 -5.83182 22.77 -101.301 -5.863 
21.78 -102.015 -5.82726 21.78 -101.301 -5.863 20.79 -102.076 -5.8242 
20.79 -101.301 -5.863 19.8 -101.301 -5.863 18.81 -101.301 -5.863 
17.82 -101.301 -5.863 16.83 -101.301 -5.863 15.84 -101.301 -5.863 
14.85 -101.301 -5.863 13.86 -101.301 -5.863 12.87 -101.301 -5.863 
11.88 -101.301 -5.863 10.89 -101.301 -5.863 9.9 -101.301 -5.863 
8.91 -101.301 -5.863 7.92 -101.301 -5.863 6.93 -102.114 -5.82232 
6.93 -101.301 -5.863 5.94 -102.076 -5.8242 5.94 -101.301 -5.863 
4.95 -102.068 -5.8246 4.95 -101.301 -5.863 4.16625 -101.301 -5.863 
-18.0675 -101.301 -5.863 -18.81 -102.028 -5.82662 -18.81 -101.301 -5.863 
-19.8 -102.001 -5.82797 -19.8 -101.301 -5.863 -20.79 -101.967 -5.82966 
-20.79 -101.301 -5.863 -21.4706 -101.301 -5.863 25.41 -100.332 -5.9115 
24.75 -100.978 -5.87917 24.75 -100.332 -5.9115 23.76 -101.046 -5.87576 
23.76 -100.332 -5.9115 22.77 -100.332 -5.9115 21.78 -100.332 -5.9115 
20.79 -100.332 -5.9115 19.8 -100.332 -5.9115 18.81 -100.332 -5.9115 
17.82 -100.332 -5.9115 16.83 -100.332 -5.9115 15.84 -100.332 -5.9115 
14.85 -100.332 -5.9115 13.86 -100.332 -5.9115 12.87 -100.332 -5.9115 
11.88 -100.332 -5.9115 10.89 -100.332 -5.9115 9.9 -100.332 -5.9115 
8.91 -100.332 -5.9115 7.92 -100.332 -5.9115 6.93 -100.332 -5.9115 
5.94 -100.332 -5.9115 4.95 -100.332 -5.9115 3.96 -101.134 -5.87136 
3.96 -100.332 -5.9115 3.14069 -100.332 -5.9115 -15.9551 -100.332 -5.9115 
-16.83 -101.189 -5.86864 -16.83 -100.332 -5.9115 -17.82 -101.211 -5.86749 
-17.82 -100.332 -5.9115 -18.81 -100.332 -5.9115 -19.8 -100.332 -5.9115 
-20.79 -100.332 -5.9115 -21.78 -101.159 -5.87013 -21.78 -100.332 -5.9115 
-22.77 -101.122 -5.87198 -22.77 -100.332 -5.9115 -23.76 -101.059 -5.87512 
-23.76 -100.332 -5.9115 -24.75 -100.998 -5.87816 -24.75 -100.332 -5.9115 
-25.4306 -100.332 -5.9115 26.4206 -99.3636 -5.96 25.74 -100.03 -5.92666 
25.74 -99.3636 -5.96 24.75 -99.3636 -5.96 23.76 -99.3636 -5.96 
22.77 -99.3636 -5.96 21.78 -99.3636 -5.96 20.79 -99.3636 -5.96 
19.8 -99.3636 -5.96 18.81 -99.3636 -5.96 17.82 -99.3636 -5.96 
16.83 -99.3636 -5.96 15.84 -99.3636 -5.96 14.85 -99.3636 -5.96 
13.86 -99.3636 -5.96 12.87 -99.3636 -5.96 11.88 -99.3636 -5.96 
10.89 -99.3636 -5.96 9.9 -99.3636 -5.96 8.91 -99.3636 -5.96 
7.92 -99.3636 -5.96 6.93 -99.3636 -5.96 5.94 -99.3636 -5.96 
4.95 -99.3636 -5.96 3.96 -99.3636 -5.96 3.11559 -99.3636 -5.96 
-14.9298 -99.3636 -5.96 -15.84 -100.254 -5.91541 -15.84 -99.3636 -5.96 
-16.83 -99.3636 -5.96 -17.82 -99.3636 -5.96 -18.81 -99.3636 -5.96 
-19.8 -99.3636 -5.96 -20.79 -99.3636 -5.96 -21.78 -99.3636 -5.96 
-22.77 -99.3636 -5.96 -23.76 -99.3636 -5.96 -24.75 -99.3636 -5.96 
-25.74 -100.102 -5.92305 -25.74 -99.3636 -5.96 -26.73 -100.009 -5.92767 
-26.73 -99.3636 -5.96 -27.39 -99.3636 -5.96 28.3564 -98.3948 -6.0085 
27.72 -99.0176 -5.97732 27.72 -98.3948 -6.0085 26.73 -99.1087 -5.97276 
26.73 -98.3948 -6.0085 25.74 -98.3948 -6.0085 24.75 -98.3948 -6.0085 
23.76 -98.3948 -6.0085 22.77 -98.3948 -6.0085 21.78 -98.3948 -6.0085 
20.79 -98.3948 -6.0085 19.8 -98.3948 -6.0085 18.81 -98.3948 -6.0085 
17.82 -98.3948 -6.0085 16.83 -98.3948 -6.0085 15.84 -98.3948 -6.0085 
14.85 -98.3948 -6.0085 13.86 -98.3948 -6.0085 12.87 -98.3948 -6.0085 
11.88 -98.3948 -6.0085 10.89 -98.3948 -6.0085 9.9 -98.3948 -6.0085 
8.91 -98.3948 -6.0085 7.92 -98.3948 -6.0085 6.93 -98.3948 -6.0085 
5.94 -98.3948 -6.0085 4.95 -98.3948 -6.0085 3.96 -98.3948 -6.0085 
3.08512 -98.3948 -6.0085 -12.045 -98.3948 -6.0085 -12.87 -99.2021 -5.96808 
-12.87 -98.3948 -6.0085 -13.86 -99.2483 -5.96577 -13.86 -98.3948 -6.0085 
-14.85 -99.2867 -5.96385 -14.85 -98.3948 -6.0085 -15.84 -98.3948 -6.0085 
-16.83 -98.3948 -6.0085 -17.82 -98.3948 -6.0085 -18.81 -98.3948 -6.0085 
-19.8 -98.3948 -6.0085 -20.79 -98.3948 -6.0085 -21.78 -98.3948 -6.0085 
-22.77 -98.3948 -6.0085 -23.76 -98.3948 -6.0085 -24.75 -98.3948 -6.0085 
-25.74 -98.3948 -6.0085 -26.73 -98.3948 -6.0085 -27.72 -99.0407 -5.97617 
-27.72 -98.3948 -6.0085 -28.38 -98.3948 -6.0085 29.425 -97.426 -6.057 
28.71 -98.1257 -6.02197 28.71 -97.426 -6.057 27.72 -97.426 -6.057 
26.73 -97.426 -6.057 25.74 -97.426 -6.057 24.75 -97.426 -6.057 
23.76 -97.426 -6.057 22.77 -97.426 -6.057 21.78 -97.426 -6.057 
20.79 -97.426 -6.057 19.8 -97.426 -6.057 18.81 -97.426 -6.057 
17.82 -97.426 -6.057 16.83 -97.426 -6.057 15.84 -97.426 -6.057 
14.85 -97.426 -6.057 13.86 -97.426 -6.057 12.87 -97.426 -6.057 
11.88 -97.426 -6.057 10.89 -97.426 -6.057 9.9 -97.426 -6.057 
8.91 -97.426 -6.057 7.92 -97.426 -6.057 6.93 -97.426 -6.057 
5.94 -97.426 -6.057 4.95 -97.426 -6.057 3.96 -97.426 -6.057 
3.0525 -97.426 -6.057 2.805 -97.426 -6.057 1.98 -98.2333 -6.01658 
1.98 -97.426 -6.057 1.155 -97.426 -6.057 -11.9586 -97.426 -6.057 
-12.87 -97.426 -6.057 -13.86 -97.426 -6.057 -14.85 -97.426 -6.057 
-15.84 -97.426 -6.057 -16.83 -97.426 -6.057 -17.82 -97.426 -6.057 
-18.81 -97.426 -6.057 -19.8 -97.426 -6.057 -20.79 -97.426 -6.057 
-21.78 -97.426 -6.057 -22.77 -97.426 -6.057 -23.76 -97.426 -6.057 
-24.75 -97.426 -6.057 -25.74 -97.426 -6.057 -26.73 -97.426 -6.057 
-27.72 -97.426 -6.057 -28.71 -98.1641 -6.02005 -28.71 -97.426 -6.057 
-29.7 -98.1257 -6.02197 -29.7 -97.426 -6.057 -30.69 -98.1399 -6.02126 
-30.69 -97.426 -6.057 -31.4195 -97.426 -6.057 30.4425 -96.4572 -6.1055 
29.7 -97.1838 -6.06913 29.7 -96.4572 -6.1055 28.71 -96.4572 -6.1055 
27.72 -96.4572 -6.1055 26.73 -96.4572 -6.1055 25.74 -96.4572 -6.1055 
24.75 -96.4572 -6.1055 23.76 -96.4572 -6.1055 22.77 -96.4572 -6.1055 
21.78 -96.4572 -6.1055 20.79 -96.4572 -6.1055 19.8 -96.4572 -6.1055 
18.81 -96.4572 -6.1055 17.82 -96.4572 -6.1055 16.83 -96.4572 -6.1055 
15.84 -96.4572 -6.1055 14.85 -96.4572 -6.1055 13.86 -96.4572 -6.1055 
12.87 -96.4572 -6.1055 11.88 -96.4572 -6.1055 10.89 -96.4572 -6.1055 
9.9 -96.4572 -6.1055 8.91 -96.4572 -6.1055 7.92 -96.4572 -6.1055 
6.93 -96.4572 -6.1055 5.94 -96.4572 -6.1055 4.95 -96.4572 -6.1055 
3.96 -96.4572 -6.1055 2.97 -97.3466 -6.06098 2.97 -96.4572 -6.1055 
1.98 -96.4572 -6.1055 1.09102 -96.4572 -6.1055 -2.09512 -96.4572 -6.1055 
-2.97 -97.3133 -6.06264 -2.97 -96.4572 -6.1055 -3.84488 -96.4572 -6.1055 
-11.9528 -96.4572 -6.1055 -12.87 -96.4572 -6.1055 -13.86 -96.4572 -6.1055 
-14.85 -96.4572 -6.1055 -15.84 -96.4572 -6.1055 -16.83 -96.4572 -6.1055 
-17.82 -96.4572 -6.1055 -18.81 -96.4572 -6.1055 -19.8 -96.4572 -6.1055 
-20.79 -96.4572 -6.1055 -21.78 -96.4572 -6.1055 -22.77 -96.4572 -6.1055 
-23.76 -96.4572 -6.1055 -24.75 -96.4572 -6.1055 -25.74 -96.4572 -6.1055 
-26.73 -96.4572 -6.1055 -27.72 -96.4572 -6.1055 -28.71 -96.4572 -6.1055 
-29.7 -96.4572 -6.1055 -30.69 -96.4572 -6.1055 -31.68 -97.1233 -6.07216 
-31.68 -96.4572 -6.1055 -32.3606 -96.4572 -6.1055 31.4737 -95.4884 -6.154 
30.69 -96.2554 -6.1156 30.69 -95.4884 -6.154 29.7 -95.4884 -6.154 
28.71 -95.4884 -6.154 27.72 -95.4884 -6.154 26.73 -95.4884 -6.154 
25.74 -95.4884 -6.154 24.75 -95.4884 -6.154 23.76 -95.4884 -6.154 
22.77 -95.4884 -6.154 21.78 -95.4884 -6.154 20.79 -95.4884 -6.154 
19.8 -95.4884 -6.154 18.81 -95.4884 -6.154 17.82 -95.4884 -6.154 
16.83 -95.4884 -6.154 15.84 -95.4884 -6.154 14.85 -95.4884 -6.154 
13.86 -95.4884 -6.154 12.87 -95.4884 -6.154 11.88 -95.4884 -6.154 
10.89 -95.4884 -6.154 9.9 -95.4884 -6.154 8.91 -95.4884 -6.154 
7.92 -95.4884 -6.154 6.93 -95.4884 -6.154 5.94 -95.4884 -6.154 
4.95 -95.4884 -6.154 3.96 -95.4884 -6.154 2.97 -95.4884 -6.154 
1.98 -95.4884 -6.154 0.99 -96.389 -6.10892 0.99 -95.4884 -6.154 
0.0697183 -95.4884 -6.154 -1.0725 -95.4884 -6.154 -1.98 -96.3765 -6.10954 
-1.98 -95.4884 -6.154 -2.97 -95.4884 -6.154 -3.88385 -95.4884 -6.154 
-11.9611 -95.4884 -6.154 -12.87 -95.4884 -6.154 -13.7789 -95.4884 -6.154 
-13.86 -95.5548 -6.15068 -13.9182 -95.4884 -6.154 -14.85 -95.4884 -6.154 
-15.84 -95.4884 -6.154 -16.83 -95.4884 -6.154 -17.82 -95.4884 -6.154 
-18.81 -95.4884 -6.154 -19.8 -95.4884 -6.154 -20.79 -95.4884 -6.154 
-21.78 -95.4884 -6.154 -22.77 -95.4884 -6.154 -23.76 -95.4884 -6.154 
-24.75 -95.4884 -6.154 -25.74 -95.4884 -6.154 -26.73 -95.4884 -6.154 
-27.72 -95.4884 -6.154 -28.71 -95.4884 -6.154 -29.7 -95.4884 -6.154 
-30.69 -95.4884 -6.154 -31.68 -95.4884 -6.154 -32.67 -96.2466 -6.11604 
-32.67 -95.4884 -6.154 -33.4448 -95.4884 -6.154 32.472 -94.5196 -6.2025 
31.68 -95.2946 -6.1637 31.68 -94.5196 -6.2025 30.69 -94.5196 -6.2025 
29.7 -94.5196 -6.2025 28.71 -94.5196 -6.2025 27.72 -94.5196 -6.2025 
26.73 -94.5196 -6.2025 25.74 -94.5196 -6.2025 24.75 -94.5196 -6.2025 
23.76 -94.5196 -6.2025 22.77 -94.5196 -6.2025 21.78 -94.5196 -6.2025 
20.79 -94.5196 -6.2025 19.8 -94.5196 -6.2025 18.81 -94.5196 -6.2025 
17.82 -94.5196 -6.2025 16.83 -94.5196 -6.2025 15.84 -94.5196 -6.2025 
14.85 -94.5196 -6.2025 13.86 -94.5196 -6.2025 12.87 -94.5196 -6.2025 
11.88 -94.5196 -6.2025 10.89 -94.5196 -6.2025 9.9 -94.5196 -6.2025 
8.91 -94.5196 -6.2025 7.92 -94.5196 -6.2025 6.93 -94.5196 -6.2025 
5.94 -94.5196 -6.2025 4.95 -94.5196 -6.2025 3.96 -94.5196 -6.2025 
2.97 -94.5196 -6.2025 1.98 -94.5196 -6.2025 0.99 -94.5196 -6.2025 
0 -95.4293 -6.15696 0 -94.5196 -6.2025 -0.929634 -94.5196 -6.2025 
-1.056 -94.5196 -6.2025 -1.98 -94.5196 -6.2025 -2.97 -94.5196 -6.2025 
[...]
POINT_DATA 18676
SCALARS scalars float
LOOKUP_TABLE default
5 5 18 5 24 5 26 5 5 
5 16 5 16 5 20 5 23 5 
21 23 28 29 5 30 5 29 5 
31 5 32 5 31 5 5 5 14 
5 19 5 25 32 41 50 58 61 
61 65 67 65 57 51 44 36 5 
31 5 25 5 24 5 5 5 20 
5 18 5 16 5 5 5 15 5 
19 31 48 65 77 85 90 93 95 
94 93 95 95 91 85 76 60 47 
35 30 5 29 5 5 5 43 5 
54 55 45 36 5 34 5 27 5 
20 5 16 5 5 5 16 25 49 
75 88 94 98 99 101 102 103 104 
104 105 105 103 99 95 85 70 58 
43 34 5 5 5 62 80 89 92 
85 73 73 73 62 42 5 21 5 
15 5 5 5 14 5 19 35 62 
88 96 98 100 104 105 109 109 110 
110 112 113 113 111 109 105 99 88 
74 59 43 5 5 5 30 5 42 
5 63 84 94 98 99 98 92 94 
98 95 83 56 29 5 15 5 5 
5 18 26 42 64 85 98 102 108 
111 110 110 112 112 111 112 112 113 
113 113 112 111 107 100 88 73 60 
5 5 5 30 5 5 63 69 78 
91 98 101 102 103 100 104 105 101 
98 85 60 33 5 21 5 18 5 
19 5 5 5 20 37 61 74 80 
91 102 107 112 113 111 109 109 111 
111 112 113 113 111 113 112 111 108 
105 101 89 75 5 61 49 5 5 
5 43 5 5 68 73 83 91 97 
103 108 109 108 108 111 107 100 92 
78 65 56 39 24 5 16 5 5 
5 24 48 72 84 86 90 97 105 
112 113 111 107 106 107 110 110 111 
111 109 107 109 110 106 104 102 100 
89 79 77 77 5 71 5 5 5 
60 65 5 5 61 5 5 5 85 
95 101 105 110 114 115 113 113 112 
105 95 87 85 86 79 60 37 5 
23 5 5 5 25 52 80 90 94 
96 97 103 109 114 113 110 104 104 
106 106 108 108 104 99 96 104 109 
105 99 94 89 75 68 73 83 86 
5 82 5 5 75 73 5 5 5 
59 58 5 68 85 97 103 106 111 
113 115 115 112 113 112 104 101 101 
99 95 90 74 52 5 32 5 17 
5 5 5 16 5 24 53 81 91 
96 101 104 104 109 112 112 111 109 
104 101 101 103 104 102 96 89 90 
100 107 105 96 87 75 59 56 63 
74 77 77 5 5 73 67 5 5 
5 60 59 57 66 83 95 103 106 
110 109 108 106 107 111 114 112 110 
111 107 103 101 93 76 58 38 5 
19 5 13 5 5 5 14 26 48 
76 93 97 105 111 113 112 114 112 
111 112 110 104 99 99 100 100 93 
88 83 88 97 105 104 95 88 79 
75 75 73 73 71 71 5 5 76 
60 5 5 5 60 58 65 81 93 
99 103 105 103 101 96 95 100 109 
114 112 111 109 107 103 98 88 71 
61 44 23 5 15 5 5 30 51 
71 89 98 102 110 113 114 113 110 
109 110 112 111 107 102 98 95 94 
84 76 79 90 98 104 103 98 93 
91 91 91 88 82 73 68 5 5 
74 53 5 5 5 63 65 72 84 
92 98 99 95 89 83 84 93 104 
115 111 107 105 103 99 93 84 73 
65 60 43 24 5 17 5 5 5 
13 5 20 5 38 59 74 84 94 
100 107 111 113 114 109 104 101 101 
105 109 111 108 103 100 95 85 71 
76 93 98 104 104 103 97 95 93 
92 89 82 73 66 5 61 59 48 
5 5 65 66 65 69 74 77 77 
81 84 86 89 95 105 110 106 101 
94 85 84 82 78 73 66 59 49 
42 25 5 16 5 5 5 14 5 
5 24 44 63 78 88 95 99 104 
110 112 113 112 104 96 90 88 92 
102 110 112 110 104 96 89 77 73 
89 94 100 104 103 97 94 93 92 
87 78 68 62 60 52 48 5 5 
5 67 67 67 66 67 67 66 70 
80 90 93 97 101 108 108 101 89 
77 73 81 86 85 83 78 68 56 
53 45 26 5 16 5 14 5 5 
13 5 5 45 64 80 92 98 102 
105 108 110 111 113 112 106 99 88 
81 80 88 99 107 111 108 100 92 
85 75 81 91 94 99 101 96 94 
92 89 83 73 66 62 59 53 53 
5 5 67 66 63 62 61 60 63 
73 85 94 99 102 106 106 99 92 
77 71 82 92 93 92 90 88 85 
78 68 61 51 33 18 5 5 22 
5 42 62 78 91 98 103 107 109 
110 110 112 113 112 111 105 95 88 
82 80 85 95 104 109 106 97 91 
81 75 84 92 96 99 96 91 90 
84 77 68 62 60 57 55 60 5 
5 5 72 5 70 66 58 55 61 
67 62 55 61 75 87 95 99 101 
98 90 81 75 82 92 97 101 100 
98 94 90 86 79 70 65 58 39 
5 20 5 5 5 16 5 27 43 
53 72 91 96 103 108 109 105 104 
104 106 108 107 109 110 104 96 89 
82 76 82 93 102 108 102 93 84 
77 75 86 94 96 95 91 85 78 
70 63 60 58 54 57 67 5 5 
5 71 5 75 75 71 63 55 61 
79 88 88 78 68 69 75 84 88 
87 85 84 81 82 93 98 104 109 
104 96 92 89 85 82 76 66 63 
62 42 5 20 5 5 5 19 35 
53 59 56 73 94 97 103 107 103 
99 95 91 93 96 97 99 101 104 
102 95 90 82 77 84 95 103 105 
97 89 79 66 76 92 94 93 89 
81 74 66 62 59 54 52 61 71 
5 5 76 79 76 71 63 63 79 
91 93 95 94 86 79 72 69 72 
77 83 88 91 94 98 103 109 113 
105 93 84 84 86 84 80 72 62 
60 57 40 5 18 5 5 5 5 
5 64 53 66 91 96 99 104 102 
97 89 83 80 82 84 85 88 93 
99 99 93 88 79 77 88 95 103 
101 93 84 70 68 82 86 84 79 
72 69 67 63 59 52 50 64 76 
5 5 5 74 81 79 71 65 67 
79 91 96 98 98 98 96 96 87 
72 68 80 91 93 96 101 105 109 
110 113 107 94 85 83 85 86 83 
79 71 62 64 59 38 5 5 5 
65 5 73 5 69 65 55 57 79 
91 95 99 100 99 95 90 83 83 
85 84 84 87 90 96 96 91 82 
72 77 87 93 96 94 90 81 67 
67 74 76 72 67 66 65 62 59 
55 54 62 74 5 75 5 72 5 
71 76 78 74 68 72 82 91 94 
96 100 102 103 101 97 90 82 80 
90 97 99 102 106 107 108 109 113 
109 100 92 89 88 87 86 83 82 
82 82 78 66 5 40 5 5 5 
5 63 64 67 64 67 78 89 92 
95 98 98 95 92 92 93 90 91 
89 90 97 97 92 85 66 61 76 
86 90 93 90 86 74 59 63 74 
72 70 66 65 67 62 60 61 61 
70 77 75 74 78 76 71 74 85 
90 93 96 101 101 101 101 103 94 
86 82 86 93 97 102 106 106 106 
106 107 111 113 110 102 97 97 91 
90 90 88 92 95 93 89 70 5 
36 5 5 5 56 5 64 70 75 
81 80 72 67 74 84 88 92 95 
93 91 92 97 100 102 100 102 103 
97 89 81 59 50 59 73 83 88 
86 84 79 66 59 69 70 69 64 
60 64 63 60 65 64 62 73 72 
75 77 74 74 81 87 91 94 95 
95 95 96 96 97 87 79 80 90 
97 102 105 107 106 104 101 101 106 
112 114 112 109 107 102 99 99 99 
99 97 96 92 86 63 5 27 5 
5 71 85 87 86 88 88 83 71 
65 74 84 89 88 87 88 91 100 
108 110 109 106 100 91 84 74 66 
69 69 69 70 76 79 80 78 72 
62 57 57 59 59 57 62 64 60 
63 66 59 62 68 70 69 71 74 
81 83 86 88 87 83 84 83 85 
86 79 74 83 95 99 106 109 109 
104 99 96 95 99 104 109 112 111 
110 108 108 106 103 102 103 99 93 
91 83 50 5 5 5 26 5 5 
83 90 89 91 92 91 88 81 72 
66 76 83 83 84 86 92 104 110 
110 104 98 89 84 75 73 79 83 
85 82 74 69 67 70 70 71 70 
62 55 51 50 54 5 5 5 65 
62 58 57 52 49 64 71 68 67 
68 72 79 79 75 72 68 66 66 
67 66 62 67 88 95 97 107 111 
108 102 94 89 88 90 95 102 105 
108 111 110 111 110 105 108 108 103 
97 92 88 70 5 35 5 5 5 
5 48 5 43 5 59 86 90 93 
97 99 95 89 84 83 75 76 81 
83 85 88 98 109 110 106 95 88 
81 73 73 82 88 89 89 87 84 
79 68 62 65 72 5 5 5 5 
5 5 46 50 5 5 5 54 5 
5 5 51 57 48 62 73 68 65 
66 69 73 71 67 64 66 70 72 
71 65 53 61 85 93 96 106 111 
109 104 93 85 80 83 89 93 98 
102 105 107 108 107 106 109 107 105 
98 92 90 84 58 5 5 5 24 
5 42 5 57 57 51 61 80 90 
93 100 105 103 96 90 86 85 86 
86 86 92 98 107 112 110 101 89 
80 67 67 82 88 90 91 90 5 
5 5 5 5 5 5 5 5 5 
5 52 5 5 5 60 5 5 5 
5 5 5 63 70 71 69 67 70 
75 82 86 90 89 83 65 61 81 
93 95 103 110 112 106 95 88 82 
79 81 83 87 92 96 98 100 100 
100 102 104 107 103 94 90 87 74 
5 5 5 29 51 72 78 74 64 
59 74 87 90 97 107 107 102 99 
96 95 94 97 98 102 105 109 108 
104 93 87 75 57 73 88 87 88 
87 86 5 5 56 5 5 5 5 
5 68 64 64 76 84 85 88 94 
92 91 82 67 72 89 93 98 106 
111 110 104 95 90 84 81 81 81 
80 82 87 91 89 90 93 100 108 
105 97 91 86 80 5 5 5 15 
5 32 55 74 85 87 85 77 65 
71 84 89 95 104 110 108 106 106 
105 103 105 106 109 108 106 101 95 
89 84 71 64 80 86 83 80 79 
80 5 5 66 5 5 5 73 70 
73 81 87 90 93 92 93 87 73 
69 83 91 99 106 110 112 111 103 
97 94 89 85 83 79 75 74 73 
76 83 90 100 108 106 97 91 87 
79 5 5 27 57 75 84 88 87 
86 84 74 70 80 86 91 99 108 
108 107 107 108 107 107 108 108 105 
101 96 88 84 76 67 71 80 80 
76 70 67 71 5 5 5 82 76 
73 77 82 86 90 91 94 91 80 
69 84 94 99 106 112 115 114 111 
107 102 97 93 91 86 80 70 62 
71 83 91 102 108 107 97 88 87 
76 5 5 5 24 54 76 82 87 
90 89 88 87 79 72 76 85 88 
95 106 109 107 103 102 104 105 104 
103 100 97 92 86 82 71 62 71 
74 72 70 67 65 66 5 5 5 
76 76 79 78 83 89 91 93 93 
84 72 85 96 98 107 112 113 112 
112 112 110 107 102 96 91 86 74 
69 80 87 94 104 109 106 94 88 
83 68 5 5 44 75 83 87 92 
96 96 92 87 83 78 74 81 89 
95 104 108 106 101 97 98 99 99 
97 98 98 93 87 83 71 63 74 
74 70 71 71 72 73 5 5 5 
76 79 78 5 5 5 86 86 92 
93 85 73 81 94 97 109 113 112 
113 114 113 112 112 108 100 93 89 
79 76 86 89 98 107 109 104 93 
87 80 63 5 5 5 37 61 81 
85 88 95 103 102 94 89 83 81 
78 82 90 97 104 109 108 103 97 
94 93 95 97 99 98 93 87 86 
78 68 73 75 71 73 76 5 5 
5 5 5 73 71 5 5 85 86 
90 92 84 69 75 93 96 104 108 
105 106 108 112 114 113 112 103 93 
88 80 77 85 91 102 108 108 101 
91 87 78 60 5 5 5 30 51 
62 77 85 88 95 104 101 92 86 
82 82 82 83 88 95 102 109 110 
105 99 94 91 94 98 101 99 95 
90 87 80 69 72 76 72 72 78 
5 5 5 5 81 86 88 86 80 
67 72 90 94 97 99 97 97 99 
106 113 113 111 101 92 86 80 79 
87 93 103 110 108 98 89 88 76 
55 5 44 5 33 5 17 5 5 
5 23 42 52 62 78 82 87 94 
103 101 92 84 82 81 82 84 87 
95 104 108 107 106 104 99 96 96 
99 102 102 97 90 87 80 65 72 
80 78 74 76 5 5 76 82 85 
84 77 62 56 74 84 87 88 85 
84 88 96 108 114 112 100 92 83 
79 81 87 92 102 110 107 96 89 
86 73 57 57 56 37 5 19 5 
5 5 18 38 56 53 70 84 84 
89 96 102 101 91 84 79 80 81 
85 89 96 107 110 109 107 108 107 
104 104 105 105 102 94 88 86 76 
66 75 80 78 73 72 5 5 70 
77 81 80 74 58 45 62 75 79 
78 78 78 82 90 107 115 111 98 
90 80 78 81 86 93 102 108 107 
96 88 83 72 70 76 79 66 42 
5 20 5 5 30 59 71 61 76 
88 88 95 102 105 99 87 82 77 
77 78 83 91 99 107 112 111 109 
108 108 108 109 108 103 98 90 87 
83 71 68 78 82 80 79 5 5 
5 69 71 76 74 65 57 64 80 
85 87 87 87 85 86 91 107 115 
108 95 87 80 79 81 86 92 100 
105 103 95 89 83 77 83 88 90 
86 73 47 5 25 5 5 5 22 
43 66 69 68 78 85 90 100 108 
105 95 84 79 75 75 79 85 93 
101 108 110 107 108 109 108 110 110 
105 97 91 87 85 78 70 74 82 
82 81 79 5 5 77 70 70 68 
61 65 84 92 92 93 91 93 92 
95 103 111 115 107 94 85 78 77 
81 87 92 99 105 103 93 86 80 
80 86 90 93 92 88 77 53 5 
24 5 5 5 14 5 20 40 57 
67 69 74 81 86 96 106 107 98 
87 80 75 76 78 83 91 97 105 
110 109 102 98 102 105 109 109 103 
95 87 84 80 74 75 80 82 80 
76 5 5 5 77 74 71 65 62 
77 91 92 96 96 92 95 96 100 
107 112 113 106 94 85 78 77 81 
86 91 98 105 103 92 85 76 76 
86 90 94 94 89 86 79 56 5 
5 5 13 19 45 68 75 78 80 
82 85 91 102 107 100 90 83 77 
73 77 81 86 92 101 108 110 104 
95 89 94 101 109 110 102 94 88 
84 78 75 80 83 81 81 80 5 
5 73 72 70 66 70 84 89 93 
97 99 97 94 92 96 102 109 113 
108 98 87 79 78 80 84 88 95 
105 102 92 84 73 76 86 93 99 
96 90 87 85 78 5 5 5 15 
19 46 76 83 83 85 86 89 94 
99 106 103 95 85 79 73 73 77 
81 87 95 103 109 109 100 89 85 
88 96 108 112 104 92 88 83 75 
74 81 84 81 81 80 5 5 78 
75 68 61 73 87 86 94 100 102 
100 95 91 92 95 103 111 111 102 
91 82 77 77 81 87 91 100 103 
96 88 77 79 88 95 102 96 91 
89 85 82 5 5 5 42 74 83 
85 86 88 91 97 102 104 106 100 
91 84 77 72 72 76 83 88 95 
104 110 107 98 88 82 84 92 103 
110 104 91 89 83 73 74 81 82 
80 79 79 5 5 5 78 69 61 
71 82 86 92 99 103 102 100 99 
94 93 101 107 114 108 98 87 81 
79 79 83 87 93 102 99 93 88 
88 94 101 101 94 89 87 85 81 
5 72 5 5 5 18 5 38 70 
82 84 87 89 90 95 100 103 101 
101 100 92 86 81 76 74 74 80 
87 94 102 109 108 100 88 80 80 
86 96 106 103 91 87 84 76 76 
80 80 78 77 77 5 78 5 5 
74 68 62 69 79 87 95 100 105 
108 106 105 101 98 101 106 112 111 
103 93 88 83 78 79 81 85 95 
99 99 97 97 98 97 92 88 86 
83 81 76 72 5 64 5 5 5 
18 35 66 78 81 84 86 87 90 
92 93 95 95 96 97 91 85 82 
80 79 77 78 85 91 99 109 111 
101 89 80 77 81 91 100 103 95 
88 84 75 70 79 82 76 74 75 
77 5 5 73 66 60 64 80 88 
95 100 104 110 110 107 103 100 102 
106 111 116 110 100 91 84 78 76 
77 81 89 92 95 97 97 95 89 
86 84 79 76 73 70 67 63 5 
64 5 54 5 5 5 15 32 64 
83 82 84 83 82 81 83 85 86 
86 89 91 92 89 86 84 81 80 
78 79 83 89 98 110 113 104 92 
83 78 80 86 96 104 96 89 84 
73 62 76 80 76 76 79 82 5 
5 75 72 66 65 80 90 94 102 
105 108 109 105 101 98 99 102 109 
115 115 108 98 90 83 79 76 79 
85 87 88 89 89 88 84 79 74 
67 67 69 69 66 62 68 69 5 
42 5 5 5 13 25 57 84 86 
87 86 84 80 76 73 76 79 81 
83 83 84 84 83 82 80 78 78 
81 82 89 98 108 115 109 97 87 
79 81 87 95 105 98 91 87 79 
66 70 76 76 75 76 76 5 5 
78 74 66 67 81 90 93 99 105 
109 108 103 97 91 93 96 103 110 
114 114 107 97 88 84 80 76 78 
81 83 84 82 83 79 69 63 63 
72 76 76 76 71 70 70 56 5 
27 5 5 5 14 18 44 78 88 
87 93 92 88 84 78 74 74 74 
77 79 80 80 80 80 78 77 79 
80 83 85 91 99 108 114 108 97 
86 80 82 87 97 104 102 94 88 
85 75 70 77 75 73 74 78 5 
5 5 73 64 67 82 88 93 99 
105 111 111 105 97 90 89 91 97 
107 111 114 111 102 91 86 84 76 
72 76 78 78 78 73 67 61 63 
73 81 83 83 83 84 83 80 69 
44 5 5 13 26 61 86 86 88 
98 102 97 89 85 82 79 77 76 
76 79 77 76 76 73 76 81 82 
85 89 94 101 109 113 106 93 82 
80 85 88 95 102 104 97 90 87 
80 69 73 75 75 76 77 5 5 
5 71 65 60 65 82 87 91 99 
106 110 111 108 99 94 93 93 97 
104 111 113 114 107 93 86 82 75 
72 78 78 78 75 69 65 69 78 
85 87 89 90 90 90 89 88 85 
67 5 30 5 5 5 19 14 34 
67 86 87 90 97 105 110 105 100 
93 86 82 79 78 79 78 77 74 
69 76 84 85 88 93 98 104 110 
111 105 91 80 81 85 88 97 104 
103 100 92 86 82 70 69 72 71 
70 72 5 5 71 54 56 68 83 
86 90 96 105 109 112 111 109 103 
99 100 104 108 112 113 112 102 92 
86 82 78 79 82 82 82 79 76 
76 80 86 87 90 95 97 96 94 
92 90 88 80 48 5 5 15 20 
43 66 81 87 87 92 100 107 112 
113 108 102 93 87 85 82 80 79 
76 70 70 83 87 88 94 102 109 
110 111 106 92 81 82 85 89 97 
103 102 98 92 85 83 76 69 73 
72 70 72 5 5 70 51 54 69 
83 85 91 98 104 110 112 112 112 
110 107 109 111 112 116 114 105 95 
87 81 79 82 86 87 89 89 87 
86 88 88 94 98 101 103 104 104 
100 95 93 88 86 64 5 28 5 
5 5 19 15 31 51 55 70 85 
85 88 89 96 107 111 112 112 108 
103 96 92 89 84 82 79 74 78 
83 88 95 104 111 112 112 109 96 
83 82 84 89 96 99 100 96 92 
86 84 78 65 72 77 75 72 5 
5 61 48 55 71 82 86 92 98 
103 111 113 114 112 113 112 109 108 
113 117 111 97 85 78 77 80 84 
87 93 96 96 96 95 98 100 105 
108 109 107 106 105 102 93 89 87 
85 69 37 5 5 13 20 45 56 
47 57 75 82 85 83 86 95 103 
112 112 113 113 111 107 101 92 84 
84 80 76 80 85 92 103 108 110 
112 110 101 88 84 85 89 95 100 
100 96 90 85 81 75 60 68 78 
76 74 5 5 54 47 59 73 82 
85 91 98 104 112 114 113 112 113 
114 113 109 114 118 106 90 78 70 
76 83 85 91 99 103 105 108 108 
109 113 114 112 110 107 102 98 94 
90 88 88 79 65 47 5 24 5 
5 5 15 16 36 60 65 60 59 
60 68 77 82 83 85 92 105 112 
113 114 115 113 110 103 90 85 82 
78 80 83 89 101 107 109 110 110 
107 96 87 86 89 95 101 100 94 
86 82 76 64 51 56 72 78 74 
5 5 56 50 58 71 84 87 93 
99 107 113 114 111 110 109 111 115 
114 117 115 101 85 74 75 83 86 
88 97 103 106 109 111 114 115 115 
114 111 107 100 95 90 87 87 82 
77 72 63 56 40 5 17 5 5 
5 14 12 25 58 74 77 77 74 
66 59 63 73 79 83 84 89 105 
112 114 115 115 114 110 96 87 82 
79 80 82 88 98 103 107 107 107 
109 103 91 89 89 96 100 101 96 
87 81 72 58 48 48 60 72 74 
5 5 61 58 62 73 84 89 95 
100 109 114 115 113 109 106 107 111 
116 117 113 98 83 77 81 86 86 
90 95 96 98 103 109 114 115 114 
113 109 100 92 88 85 81 77 75 
75 76 75 74 67 37 5 17 5 
5 12 16 47 77 84 84 84 80 
79 70 61 59 69 78 81 84 94 
105 112 116 117 114 111 98 88 82 
81 81 84 88 97 99 103 104 105 
109 109 98 93 92 96 99 102 98 
89 83 76 69 66 61 57 61 68 
5 5 67 61 65 74 84 90 98 
104 111 114 116 115 111 108 107 109 
112 116 115 99 85 82 83 85 86 
87 86 85 88 95 105 111 113 114 
110 98 90 87 83 79 74 74 77 
80 84 85 85 83 66 34 5 5 
13 30 71 85 87 87 84 82 82 
79 74 64 63 72 77 81 87 97 
109 114 116 114 110 99 88 81 77 
76 83 86 90 94 95 99 104 111 
113 104 97 97 98 101 102 99 94 
86 81 78 79 77 68 60 62 5 
5 71 64 65 73 83 88 98 106 
110 111 114 115 114 110 106 107 112 
116 116 106 89 84 84 85 82 81 
79 78 81 92 104 110 112 111 100 
89 84 80 76 72 73 79 83 86 
87 88 88 87 83 64 5 32 5 
5 17 51 83 86 86 87 84 84 
80 79 78 74 70 68 72 79 84 
90 103 113 115 114 109 98 88 82 
73 70 80 86 85 88 88 92 100 
109 114 111 108 108 106 106 106 104 
100 93 87 82 79 79 77 66 58 
5 58 5 5 5 63 64 74 83 
89 98 106 109 108 109 113 113 110 
109 106 109 115 115 115 104 91 85 
82 80 80 74 73 81 94 107 112 
112 104 91 85 80 74 71 75 80 
83 84 87 88 89 88 87 84 79 
57 5 5 5 13 28 70 87 88 
89 89 87 84 79 78 76 76 76 
74 71 74 82 90 101 111 114 113 
109 97 88 81 71 62 68 79 82 
83 84 85 93 103 112 112 112 113 
112 112 112 110 108 103 96 88 83 
81 79 73 65 64 5 5 67 64 
74 83 88 97 105 105 105 106 110 
113 112 112 107 107 114 113 116 113 
105 94 86 84 84 76 77 84 97 
111 115 110 99 87 80 74 71 76 
83 84 87 90 94 93 90 89 87 
83 77 66 5 5 14 43 81 89 
91 92 89 87 83 79 78 78 77 
77 77 79 80 85 90 96 105 112 
113 112 101 88 82 75 62 59 69 
75 77 79 82 87 98 111 112 110 
112 110 111 111 110 110 106 98 93 
87 83 82 76 69 65 5 5 5 
69 66 66 77 84 88 96 103 104 
100 103 108 114 115 114 112 108 110 
112 115 114 113 108 97 85 83 77 
81 87 100 112 115 110 93 84 78 
76 78 83 85 90 97 102 104 104 
99 94 87 84 79 68 5 41 5 
5 19 58 87 89 89 90 87 83 
80 81 78 79 77 78 80 82 85 
87 92 98 105 112 114 112 108 94 
85 81 74 68 69 73 72 73 78 
83 93 108 113 109 108 108 109 108 
108 105 101 96 94 89 83 82 79 
72 66 5 5 55 59 68 79 84 
89 97 104 105 102 105 110 115 117 
115 113 111 111 113 116 116 115 112 
100 86 80 76 82 93 106 114 115 
109 94 85 81 82 85 88 94 102 
106 108 109 110 108 103 91 86 81 
71 52 5 25 5 5 24 68 87 
91 91 89 86 81 78 79 79 80 
79 80 84 86 89 90 95 101 107 
111 111 112 113 107 95 87 83 83 
80 77 75 75 77 83 94 108 112 
109 108 110 108 105 102 99 93 90 
88 86 84 81 79 72 64 5 62 
5 5 57 59 68 79 83 89 98 
104 106 106 109 111 114 115 112 111 
111 111 112 116 116 116 111 97 84 
81 80 87 99 111 116 115 110 100 
92 90 92 95 101 106 110 110 109 
105 101 101 101 94 89 84 76 66 
37 5 5 5 12 30 73 85 89 
90 88 84 81 77 77 78 81 84 
85 88 90 92 96 100 103 108 112 
111 115 115 114 109 101 94 92 88 
84 81 81 81 85 96 109 114 113 
115 115 110 106 101 97 92 89 87 
86 84 82 81 74 69 61 5 5 
63 67 75 80 83 90 98 104 105 
106 112 114 114 115 113 111 110 111 
113 115 114 114 110 95 83 84 85 
97 109 114 115 114 113 110 104 104 
107 110 113 112 111 107 100 92 88 
88 90 90 89 86 80 77 45 5 
5 13 34 78 87 88 89 87 83 
81 78 77 80 81 85 88 92 97 
98 101 103 107 111 112 112 116 115 
115 114 112 109 105 101 96 91 89 
90 94 104 112 114 112 114 113 111 
110 106 101 97 93 91 90 88 84 
81 78 73 60 5 5 63 70 80 
83 85 92 99 106 107 109 114 115 
115 115 114 112 112 115 117 116 115 
114 112 101 91 91 97 107 114 115 
115 114 114 115 112 112 114 117 117 
113 106 96 88 85 84 83 85 86 
87 88 85 82 50 5 5 13 36 
79 87 89 89 86 83 80 78 77 
81 83 87 90 94 101 104 105 107 
110 111 111 112 114 114 114 115 116 
115 113 111 107 103 101 101 104 109 
111 113 113 113 112 112 111 109 108 
106 103 99 98 95 91 84 81 77 
62 5 5 5 65 66 74 79 84 
87 93 100 106 109 111 115 117 117 
115 115 114 114 114 114 113 115 117 
116 109 102 102 109 115 116 116 116 
115 117 117 118 117 118 118 114 104 
92 86 83 79 76 78 82 83 85 
87 85 82 53 5 18 5 5 14 
34 75 86 87 88 85 82 81 77 
76 81 84 87 92 97 104 108 109 
111 112 111 110 112 114 115 115 115 
117 117 114 113 111 109 109 112 113 
112 110 113 114 113 111 111 107 104 
104 104 104 104 104 101 94 84 81 
78 67 5 5 5 57 5 5 59 
64 73 79 83 86 92 97 102 109 
113 116 116 114 112 111 110 110 112 
112 112 113 116 117 114 113 114 117 
117 118 117 116 116 115 117 119 118 
118 115 106 92 84 81 77 75 71 
72 76 79 80 83 82 73 49 18 
5 5 17 34 74 88 88 88 84 
82 77 71 69 76 82 86 92 98 
107 111 112 112 110 110 110 112 114 
116 115 115 116 117 117 115 112 112 
113 114 115 114 112 112 114 113 108 
101 94 92 91 92 91 95 98 100 
95 87 83 78 73 5 5 51 5 
5 61 65 69 79 85 85 91 96 
102 110 111 110 108 103 100 98 98 
98 106 112 113 113 115 115 116 119 
120 119 117 117 116 115 116 117 117 
119 118 118 112 99 85 81 81 78 
78 77 76 76 76 75 75 70 58 
44 22 5 5 17 36 75 88 88 
88 87 86 80 69 64 72 77 83 
91 99 109 112 114 113 111 110 109 
112 113 115 117 116 116 116 116 116 
117 116 114 114 115 114 114 113 113 
109 99 90 84 81 82 80 80 83 
88 94 94 88 80 77 75 5 63 
53 5 5 64 68 64 74 85 85 
87 91 97 101 99 97 94 91 90 
88 87 86 95 107 113 114 115 115 
116 119 119 118 118 117 116 116 115 
116 116 117 119 119 110 94 82 79 
80 81 82 82 82 83 83 80 77 
71 60 49 26 5 5 13 38 80 
90 90 91 90 87 84 80 74 73 
75 83 90 102 112 116 117 115 110 
107 106 109 113 116 117 115 115 115 
113 113 115 113 112 112 113 113 113 
113 112 102 89 81 79 78 79 76 
76 77 81 85 87 85 80 78 74 
66 56 5 5 71 74 63 72 81 
83 84 86 89 89 87 86 84 84 
86 85 82 82 87 103 112 112 114 
116 113 114 115 116 117 116 116 117 