# vtk DataFile Version 4.0
vtk output
ASCII
DATASET POLYDATA
POINTS 19296 float
20.6429 -106 -11 20 -106.643 -11 20 -106 -11 
19 -106.688 -11 19 -106 -11 18 -106.706 -11 
18 -106 -11 17 -106.706 -11 17 -106 -11 
16 -106.722 -11 16 -106 -11 15 -106.762 -11 
15 -106 -11 14 -106.783 -11 14 -106 -11 
13 -106.808 -11 13 -106 -11 12 -106.828 -11 
12 -106 -11 11 -106.828 -11 11 -106 -11 
10 -106.844 -11 10 -106 -11 9 -106.833 -11 
9 -106 -11 8 -106.821 -11 8 -106 -11 
7.17857 -106 -11 22.6429 -105 -11 22 -105.643 -11 
22 -105 -11 21 -105.667 -11 21 -105 -11 
20 -105 -11 19 -105 -11 18 -105 -11 
17 -105 -11 16 -105 -11 15 -105 -11 
14 -105 -11 13 -105 -11 12 -105 -11 
11 -105 -11 10 -105 -11 9 -105 -11 
8 -105 -11 7 -105.815 -11 7 -105 -11 
6 -105.773 -11 6 -105 -11 5 -105.75 -11 
5 -105 -11 4.25 -105 -11 23.7368 -104 -11 
23 -104.737 -11 23 -104 -11 22 -104 -11 
21 -104 -11 20 -104 -11 19 -104 -11 
18 -104 -11 17 -104 -11 16 -104 -11 
15 -104 -11 14 -104 -11 13 -104 -11 
12 -104 -11 11 -104 -11 10 -104 -11 
9 -104 -11 8 -104 -11 7 -104 -11 
6 -104 -11 5 -104 -11 4 -104.773 -11 
4 -104 -11 3.22727 -104 -11 -15.1724 -104 -11 
-16 -104.828 -11 -16 -104 -11 -17 -104.875 -11 
-17 -104 -11 -18 -104.898 -11 -18 -104 -11 
-19 -104.898 -11 -19 -104 -11 -20 -104.872 -11 
-20 -104 -11 -21 -104.815 -11 -21 -104 -11 
-22 -104.773 -11 -22 -104 -11 -23 -104.722 -11 
-23 -104 -11 -23.7222 -104 -11 25.7222 -103 -11 
25 -103.722 -11 25 -103 -11 24 -103.821 -11 
24 -103 -11 23 -103 -11 22 -103 -11 
21 -103 -11 20 -103 -11 19 -103 -11 
18 -103 -11 17 -103 -11 16 -103 -11 
15 -103 -11 14 -103 -11 13 -103 -11 
12 -103 -11 11 -103 -11 10 -103 -11 
9 -103 -11 8 -103 -11 7 -103 -11 
6 -103 -11 5 -103 -11 4 -103 -11 
3.13889 -103 -11 -15.0714 -103 -11 -16 -103 -11 
-17 -103 -11 -18 -103 -11 -19 -103 -11 
-20 -103 -11 -21 -103 -11 -22 -103 -11 
-23 -103 -11 -24 -103.853 -11 -24 -103 -11 
-25 -103.792 -11 -25 -103 -11 -26 -103.706 -11 
-26 -103 -11 -26.7059 -103 -11 27.7059 -102 -11 
27 -102.706 -11 27 -102 -11 26 -102.773 -11 
26 -102 -11 25 -102 -11 24 -102 -11 
23 -102 -11 22 -102 -11 21 -102 -11 
20 -102 -11 19 -102 -11 18 -102 -11 
17 -102 -11 16 -102 -11 15 -102 -11 
14 -102 -11 13 -102 -11 12 -102 -11 
11 -102 -11 10 -102 -11 9 -102 -11 
8 -102 -11 7 -102 -11 6 -102 -11 
5 -102 -11 4 -102 -11 3.08333 -102 -11 
-12.1667 -102 -11 -13 -102.833 -11 -13 -102 -11 
-14 -102.907 -11 -14 -102 -11 -15 -102.939 -11 
-15 -102 -11 -16 -102 -11 -17 -102 -11 
-18 -102 -11 -19 -102 -11 -20 -102 -11 
-21 -102 -11 -22 -102 -11 -23 -102 -11 
-24 -102 -11 -25 -102 -11 -26 -102 -11 
-27 -102.773 -11 -27 -102 -11 -27.7727 -102 -11 
28.75 -101 -11 28 -101.75 -11 28 -101 -11 
27 -101 -11 26 -101 -11 25 -101 -11 
24 -101 -11 23 -101 -11 22 -101 -11 
21 -101 -11 20 -101 -11 19 -101 -11 
18 -101 -11 17 -101 -11 16 -101 -11 
15 -101 -11 14 -101 -11 13 -101 -11 
12 -101 -11 11 -101 -11 10 -101 -11 
9 -101 -11 8 -101 -11 7 -101 -11 
6 -101 -11 5 -101 -11 4 -101 -11 
3 -101.921 -11 3 -101 -11 2 -101.904 -11 
2 -101 -11 1 -101.868 -11 1 -101 -11 
0.131579 -101 -11 -12.0893 -101 -11 -13 -101 -11 
-14 -101 -11 -15 -101 -11 -16 -101 -11 
-17 -101 -11 -18 -101 -11 -19 -101 -11 
-20 -101 -11 -21 -101 -11 -22 -101 -11 
-23 -101 -11 -24 -101 -11 -25 -101 -11 
-26 -101 -11 -27 -101 -11 -28 -101.833 -11 
-28 -101 -11 -29 -101.706 -11 -29 -101 -11 
-30 -101.688 -11 -30 -101 -11 -30.6875 -101 -11 
30.7059 -100 -11 30 -100.706 -11 30 -100 -11 
29 -100.815 -11 29 -100 -11 28 -100 -11 
27 -100 -11 26 -100 -11 25 -100 -11 
24 -100 -11 23 -100 -11 22 -100 -11 
21 -100 -11 20 -100 -11 19 -100 -11 
18 -100 -11 17 -100 -11 16 -100 -11 
15 -100 -11 14 -100 -11 13 -100 -11 
12 -100 -11 11 -100 -11 10 -100 -11 
9 -100 -11 8 -100 -11 7 -100 -11 
6 -100 -11 5 -100 -11 4 -100 -11 
3 -100 -11 2 -100 -11 1 -100 -11 
0.0980392 -100 -11 -12.0685 -100 -11 -13 -100 -11 
-14 -100 -11 -15 -100 -11 -16 -100 -11 
-17 -100 -11 -18 -100 -11 -19 -100 -11 
-20 -100 -11 -21 -100 -11 -22 -100 -11 
-23 -100 -11 -24 -100 -11 -25 -100 -11 
-26 -100 -11 -27 -100 -11 -28 -100 -11 
-29 -100 -11 -30 -100 -11 -31 -100.737 -11 
-31 -100 -11 -32 -100.706 -11 -32 -100 -11 
-32.7059 -100 -11 31.7368 -99 -11 31 -99.7368 -11 
31 -99 -11 30 -99 -11 29 -99 -11 
28 -99 -11 27 -99 -11 26 -99 -11 
25 -99 -11 24 -99 -11 23 -99 -11 
22 -99 -11 21 -99 -11 20 -99 -11 
19 -99 -11 18 -99 -11 17 -99 -11 
16 -99 -11 15 -99 -11 14 -99 -11 
13 -99 -11 12 -99 -11 11 -99 -11 
10 -99 -11 9 -99 -11 8 -99 -11 
7 -99 -11 6 -99 -11 5 -99 -11 
4 -99 -11 3 -99 -11 2 -99 -11 
1 -99 -11 0 -99.9254 -11 0 -99 -11 
-1 -99.9219 -11 -1 -99 -11 -2 -99.9206 -11 
-2 -99 -11 -3 -99.9242 -11 -3 -99 -11 
-3.92424 -99 -11 -12.0633 -99 -11 -13 -99 -11 
-14 -99 -11 -15 -99 -11 -16 -99 -11 
-17 -99 -11 -18 -99 -11 -19 -99 -11 
-20 -99 -11 -21 -99 -11 -22 -99 -11 
-23 -99 -11 -24 -99 -11 -25 -99 -11 
-26 -99 -11 -27 -99 -11 -28 -99 -11 
-29 -99 -11 -30 -99 -11 -31 -99 -11 
-32 -99 -11 -33 -99.7222 -11 -33 -99 -11 
-34 -99.6429 -11 -34 -99 -11 -34.6429 -99 -11 
31.8649 -98 -11 31 -98 -11 30 -98 -11 
29 -98 -11 28 -98 -11 27 -98 -11 
26 -98 -11 25 -98 -11 24 -98 -11 
23 -98 -11 22 -98 -11 21 -98 -11 
20 -98 -11 19 -98 -11 18 -98 -11 
17 -98 -11 16 -98 -11 15 -98 -11 
14 -98 -11 13 -98 -11 12 -98 -11 
11 -98 -11 10 -98 -11 9 -98 -11 
8 -98 -11 7 -98 -11 6 -98 -11 
5 -98 -11 4 -98 -11 3 -98 -11 
2 -98 -11 1 -98 -11 0 -98 -11 
-1 -98 -11 -2 -98 -11 -3 -98 -11 
-3.92958 -98 -11 -12.0633 -98 -11 -13 -98 -11 
-14 -98 -11 -15 -98 -11 -16 -98 -11 
-17 -98 -11 -18 -98 -11 -19 -98 -11 
-20 -98 -11 -21 -98 -11 -22 -98 -11 
-23 -98 -11 -24 -98 -11 -25 -98 -11 
-26 -98 -11 -27 -98 -11 -28 -98 -11 
-29 -98 -11 -30 -98 -11 -31 -98 -11 
-32 -98 -11 -33 -98 -11 -34 -98 -11 
-35 -98.6875 -11 -35 -98 -11 -35.6875 -98 -11 
33.7222 -97 -11 33 -97.7222 -11 33 -97 -11 
32 -97.8611 -11 32 -97 -11 31 -97 -11 
30 -97 -11 29 -97 -11 28 -97 -11 
27 -97 -11 26 -97 -11 25 -97 -11 
24 -97 -11 23 -97 -11 22 -97 -11 
21 -97 -11 20 -97 -11 19 -97 -11 
18 -97 -11 17 -97 -11 16 -97 -11 
15 -97 -11 14 -97 -11 13 -97 -11 
12 -97 -11 11 -97 -11 10 -97 -11 
9 -97 -11 8 -97 -11 7 -97 -11 
6 -97 -11 5 -97 -11 4 -97 -11 
3 -97 -11 2 -97 -11 1 -97 -11 
0 -97 -11 -1 -97 -11 -2 -97 -11 
-3 -97 -11 -3.92958 -97 -11 -11.0806 -97 -11 
-12 -97.9194 -11 -12 -97 -11 -13 -97 -11 
-14 -97 -11 -15 -97 -11 -16 -97 -11 
-17 -97 -11 -18 -97 -11 -19 -97 -11 
-20 -97 -11 -21 -97 -11 -22 -97 -11 
-23 -97 -11 -24 -97 -11 -25 -97 -11 
-26 -97 -11 -27 -97 -11 -28 -97 -11 
-29 -97 -11 -30 -97 -11 -31 -97 -11 
-32 -97 -11 -33 -97 -11 -34 -97 -11 
-35 -97 -11 -36 -97.8148 -11 -36 -97 -11 
-37 -97.7059 -11 -37 -97 -11 -37.7059 -97 -11 
35.6429 -96 -11 35 -96.6429 -11 35 -96 -11 
34 -96.75 -11 34 -96 -11 33 -96 -11 
32 -96 -11 31 -96 -11 30 -96 -11 
29 -96 -11 28 -96 -11 27 -96 -11 
26 -96 -11 25 -96 -11 24 -96 -11 
23 -96 -11 22 -96 -11 21 -96 -11 
20 -96 -11 19 -96 -11 18 -96 -11 
17 -96 -11 16 -96 -11 15 -96 -11 
14 -96 -11 13 -96 -11 12 -96 -11 
11 -96 -11 10 -96 -11 9 -96 -11 
8 -96 -11 7 -96 -11 6 -96 -11 
5 -96 -11 4 -96 -11 3 -96 -11 
2 -96 -11 1 -96 -11 0 -96 -11 
-1 -96 -11 -2 -96 -11 -3 -96 -11 
-3.92958 -96 -11 -10.0847 -96 -11 -11 -96.9153 -11 
-11 -96 -11 -12 -96 -11 -13 -96 -11 
-14 -96 -11 -15 -96 -11 -16 -96 -11 
-17 -96 -11 -18 -96 -11 -19 -96 -11 
-20 -96 -11 -21 -96 -11 -22 -96 -11 
-23 -96 -11 -24 -96 -11 -25 -96 -11 
-26 -96 -11 -27 -96 -11 -28 -96 -11 
-29 -96 -11 -30 -96 -11 -31 -96 -11 
-32 -96 -11 -33 -96 -11 -34 -96 -11 
-35 -96 -11 -36 -96 -11 -37 -96 -11 
-38 -96.7368 -11 -38 -96 -11 -39 -96.6875 -11 
-39 -96 -11 -39.6875 -96 -11 35.7826 -95 -11 
35 -95 -11 34 -95 -11 33 -95 -11 
32 -95 -11 31 -95 -11 30 -95 -11 
29 -95 -11 28 -95 -11 27 -95 -11 
26 -95 -11 25 -95 -11 24 -95 -11 
23 -95 -11 22 -95 -11 21 -95 -11 
20 -95 -11 19 -95 -11 18 -95 -11 
17 -95 -11 16 -95 -11 15 -95 -11 
14 -95 -11 13 -95 -11 12 -95 -11 
11 -95 -11 10 -95 -11 9 -95 -11 
8 -95 -11 7 -95 -11 6 -95 -11 
5 -95 -11 4 -95 -11 3 -95 -11 
2 -95 -11 1 -95 -11 0 -95 -11 
-1 -95 -11 -2 -95 -11 -3 -95 -11 
-3.92308 -95 -11 -10.0847 -95 -11 -11 -95 -11 
-12 -95 -11 -13 -95 -11 -14 -95 -11 
-15 -95 -11 -16 -95 -11 -17 -95 -11 
-18 -95 -11 -19 -95 -11 -20 -95 -11 
-21 -95 -11 -22 -95 -11 -23 -95 -11 
-24 -95 -11 -25 -95 -11 -26 -95 -11 
-27 -95 -11 -28 -95 -11 -29 -95 -11 
-30 -95 -11 -31 -95 -11 -32 -95 -11 
-33 -95 -11 -34 -95 -11 -35 -95 -11 
-36 -95 -11 -37 -95 -11 -38 -95 -11 
-39 -95 -11 -40 -95.6429 -11 -40 -95 -11 
-40.6429 -95 -11 38.6154 -94 -11 38 -94.6154 -11 
38 -94 -11 37 -94.7222 -11 37 -94 -11 
36 -94.8276 -11 36 -94 -11 35 -94 -11 
34 -94 -11 33 -94 -11 32 -94 -11 
31 -94 -11 30 -94 -11 29 -94 -11 
28 -94 -11 27 -94 -11 26 -94 -11 
25 -94 -11 24 -94 -11 23 -94 -11 
22 -94 -11 21 -94 -11 20 -94 -11 
19 -94 -11 18 -94 -11 17 -94 -11 
16 -94 -11 15 -94 -11 14 -94 -11 
13 -94 -11 12 -94 -11 11 -94 -11 
10 -94 -11 9 -94 -11 8 -94 -11 
7 -94 -11 6 -94 -11 5 -94 -11 
4 -94 -11 3 -94 -11 2 -94 -11 
1 -94 -11 0 -94 -11 -1 -94 -11 
-2 -94 -11 -3 -94 -11 -3.92188 -94 -11 
-9.08065 -94 -11 -10 -94.9194 -11 -10 -94 -11 
-11 -94 -11 -12 -94 -11 -13 -94 -11 
-14 -94 -11 -15 -94 -11 -16 -94 -11 
-17 -94 -11 -18 -94 -11 -19 -94 -11 
-20 -94 -11 -21 -94 -11 -22 -94 -11 
-23 -94 -11 -24 -94 -11 -25 -94 -11 
-26 -94 -11 -27 -94 -11 -28 -94 -11 
-29 -94 -11 -30 -94 -11 -31 -94 -11 
-32 -94 -11 -33 -94 -11 -34 -94 -11 
-35 -94 -11 -36 -94 -11 -37 -94 -11 
-38 -94 -11 -39 -94 -11 -40 -94 -11 
-41 -94.6667 -11 -41 -94 -11 -41.6667 -94 -11 
40.6875 -93 -11 40 -93.6875 -11 40 -93 -11 
39.3125 -93 -11 38.7619 -93 -11 38 -93 -11 
37 -93 -11 36 -93 -11 35 -93 -11 
34 -93 -11 33 -93 -11 32 -93 -11 
31 -93 -11 30 -93 -11 29 -93 -11 
28 -93 -11 27 -93 -11 26 -93 -11 
25 -93 -11 24 -93 -11 23 -93 -11 
22 -93 -11 21 -93 -11 20 -93 -11 
19 -93 -11 18 -93 -11 17 -93 -11 
16 -93 -11 15 -93 -11 14 -93 -11 
13 -93 -11 12 -93 -11 11 -93 -11 
10 -93 -11 9 -93 -11 8 -93 -11 
7 -93 -11 6 -93 -11 5 -93 -11 
4 -93 -11 3 -93 -11 2 -93 -11 
1 -93 -11 0 -93 -11 -1 -93 -11 
[...]
POINT_DATA 19296
SCALARS scalars float
LOOKUP_TABLE default
5 5 14 5 16 5 17 5 17 
5 18 5 21 5 23 5 26 5 
29 5 29 5 32 5 30 5 28 
5 5 5 14 5 15 19 24 30 
34 38 42 46 47 47 47 46 40 
36 5 27 5 22 5 20 5 5 
5 19 28 39 51 62 70 73 73 
75 75 76 75 76 77 69 59 51 
41 29 5 22 5 5 5 29 5 
40 5 49 5 49 5 39 5 27 
5 22 5 18 5 5 5 18 5 
28 46 64 78 86 89 90 91 93 
91 90 91 92 92 96 91 81 71 
64 47 36 5 5 70 84 90 92 
84 63 49 43 5 34 5 24 5 
17 5 5 5 17 5 22 39 63 
80 91 96 100 102 104 103 101 99 
98 98 99 97 103 105 99 87 80 
69 60 5 5 5 30 5 54 5 
82 94 97 98 99 97 83 74 78 
76 62 42 5 22 5 5 5 20 
33 49 69 85 95 100 103 106 108 
107 105 103 100 101 101 102 101 105 
114 110 99 86 77 68 5 63 5 
52 5 38 5 5 56 78 95 99 
101 105 102 97 90 88 94 99 95 
84 57 5 30 5 17 5 16 5 
5 5 17 5 27 50 73 85 92 
99 104 105 104 105 108 109 107 101 
98 99 100 101 101 105 113 120 111 
97 89 73 62 60 51 5 5 73 
90 99 100 107 110 103 94 91 97 
105 108 103 97 84 57 39 27 5 
19 5 17 5 5 5 19 35 62 
86 94 99 102 106 108 107 105 105 
108 108 106 102 100 100 102 102 102 
106 109 117 120 111 102 87 61 63 
70 5 67 5 64 5 63 5 66 
5 5 79 93 98 101 108 111 106 
101 103 105 110 111 105 96 86 70 
61 56 43 28 5 18 5 14 5 
5 37 66 87 93 99 108 110 110 
106 103 101 102 105 108 107 105 104 
104 104 105 106 109 111 110 111 111 
104 90 62 58 73 80 80 76 71 
5 5 79 94 100 105 112 113 112 
111 112 109 109 112 108 97 89 83 
80 78 74 59 42 27 5 16 5 
5 5 18 5 36 65 87 93 98 
107 109 109 108 104 100 98 100 105 
108 108 107 107 106 105 106 108 109 
109 104 100 96 89 79 64 61 71 
78 78 75 71 5 5 5 62 80 
95 103 108 112 112 111 110 109 109 
110 113 113 106 98 95 93 92 89 
81 72 63 44 5 27 5 17 5 
5 5 14 5 20 34 60 82 93 
97 104 112 112 112 110 105 100 98 
100 106 108 109 110 106 103 99 99 
103 106 106 98 91 81 72 71 70 
70 73 78 80 80 71 5 5 5 
59 63 77 91 101 105 103 101 99 
96 93 94 100 109 113 113 109 105 
103 102 101 98 93 90 83 62 34 
5 19 5 16 5 5 23 39 57 
72 87 96 99 104 112 115 114 111 
108 103 103 106 107 110 109 105 103 
95 88 91 101 107 108 100 90 81 
77 85 89 86 79 67 67 70 65 
5 5 59 66 77 85 93 98 97 
92 86 81 75 75 86 101 112 114 
115 113 112 110 109 106 102 101 99 
90 68 39 18 5 14 5 5 5 
13 5 18 5 29 46 55 63 76 
88 92 96 102 111 114 113 112 112 
109 108 110 110 110 108 105 96 81 
75 85 97 106 109 104 97 91 91 
93 91 90 89 74 63 59 64 5 
5 5 62 62 72 78 76 76 80 
80 81 82 78 77 83 94 105 113 
113 112 109 108 107 106 104 104 102 
99 92 81 64 38 18 5 15 5 
5 5 16 5 5 21 36 49 53 
59 70 78 82 86 94 101 109 114 
115 113 109 109 110 111 113 111 107 
102 92 74 64 82 92 100 105 107 
103 99 96 96 93 92 90 83 68 
53 53 5 5 63 67 76 76 70 
61 56 61 79 91 94 97 102 105 
111 115 110 103 97 94 93 93 94 
94 88 88 83 76 68 56 38 21 
5 16 5 5 5 23 5 17 14 
5 5 40 53 58 66 76 80 80 
81 86 96 104 108 113 113 109 102 
101 101 106 110 110 109 103 93 78 
57 68 84 92 98 104 103 100 99 
96 92 92 88 79 69 57 50 5 
5 5 65 67 74 80 78 69 57 
52 63 80 92 100 104 107 111 115 
112 103 90 78 77 83 86 88 87 
83 82 82 80 75 69 62 46 25 
5 5 5 16 24 5 42 53 64 
80 87 88 88 90 92 95 102 108 
110 113 112 106 96 89 87 94 101 
108 112 106 96 89 72 59 69 83 
90 99 102 97 96 92 89 87 84 
76 66 60 55 5 5 5 66 68 
73 80 85 80 65 56 51 58 73 
91 100 104 109 113 110 104 99 78 
62 72 85 87 91 91 90 90 91 
92 91 89 84 75 56 5 30 5 
5 25 43 53 60 83 96 95 97 
100 102 102 103 107 111 113 113 112 
109 97 87 80 79 89 99 108 109 
103 94 88 72 61 70 85 93 101 
99 94 90 82 76 70 65 59 55 
56 5 5 5 66 70 76 81 90 
89 77 70 73 76 76 69 73 87 
96 101 104 104 99 88 67 68 85 
93 95 99 98 99 98 97 96 97 
96 91 86 79 56 5 28 5 5 
5 15 5 25 45 51 53 73 93 
96 101 106 107 109 109 108 108 111 
114 113 111 110 102 91 83 77 80 
90 101 107 108 100 93 87 72 64 
79 93 99 99 91 86 74 65 61 
59 59 57 59 5 5 74 77 83 
88 94 91 79 78 89 96 96 85 
73 74 86 91 93 95 89 76 69 
81 92 96 102 108 106 105 103 102 
100 100 98 95 90 83 70 48 5 
22 5 5 5 13 5 15 27 45 
52 52 52 71 93 97 106 112 112 
114 112 110 108 104 106 108 108 111 
108 98 90 86 77 80 92 100 106 
107 97 91 81 70 76 92 97 97 
88 81 71 62 61 57 58 60 61 
5 5 5 73 80 85 90 93 91 
85 82 85 95 100 99 95 90 82 
81 80 74 73 74 73 81 93 96 
104 112 115 111 106 103 100 97 98 
96 95 93 78 69 61 39 5 5 
5 5 5 53 57 58 53 62 84 
94 101 109 113 112 111 108 103 96 
97 100 102 106 110 106 95 89 79 
75 83 91 98 106 104 96 87 77 
79 92 94 93 89 82 75 70 65 
57 55 61 63 5 60 5 68 77 
86 92 93 91 88 86 88 91 98 
107 107 102 100 98 95 86 71 62 
72 83 93 99 103 110 115 116 110 
101 95 92 89 90 91 87 85 76 
67 64 57 5 33 5 5 5 44 
5 60 58 64 72 75 71 74 85 
93 99 108 112 111 108 105 100 98 
95 97 103 108 106 97 90 81 65 
68 84 92 101 104 97 89 79 76 
87 95 93 90 87 81 73 65 56 
53 58 62 63 72 82 90 92 89 
86 89 91 95 100 105 109 110 109 
106 101 98 91 76 70 82 92 97 
105 112 115 115 117 112 97 88 84 
82 83 84 79 77 76 75 75 75 
60 5 33 5 5 5 61 67 78 
85 88 85 76 78 84 90 97 105 
110 110 107 106 105 104 104 104 106 
105 95 89 79 56 55 73 83 90 
98 99 93 85 76 79 90 91 90 
85 80 70 59 54 56 60 64 66 
74 85 90 86 84 85 90 97 102 
106 108 109 110 111 109 104 96 85 
74 77 88 96 101 107 114 115 113 
115 114 102 93 87 83 82 81 78 
78 80 84 88 90 86 62 5 28 
5 5 5 43 5 56 62 78 90 
92 92 90 86 77 76 84 92 95 
100 107 108 108 110 110 108 110 108 
102 91 85 73 68 73 75 76 80 
89 95 94 89 82 77 80 85 86 
81 74 66 56 53 59 64 65 61 
73 85 86 80 83 90 95 102 105 
105 102 102 103 105 103 98 89 79 
77 83 90 98 105 111 114 114 111 
112 116 111 103 95 90 87 84 80 
83 87 94 96 93 91 82 50 5 
5 5 21 5 35 48 52 67 84 
91 95 99 95 90 84 75 73 82 
90 92 98 105 109 112 111 110 110 
104 94 86 79 76 83 88 86 80 
77 81 87 90 91 88 80 70 70 
75 75 70 63 57 59 62 61 55 
57 75 84 80 77 86 95 98 102 
100 95 87 88 92 95 99 94 83 
75 81 91 93 102 109 113 113 112 
108 109 114 115 110 104 99 96 94 
91 91 95 101 102 98 93 89 71 
5 37 5 5 5 15 5 22 40 
58 62 64 75 84 89 95 103 100 
91 88 80 65 61 76 86 92 100 
110 113 113 110 103 94 88 81 76 
82 90 93 92 89 82 77 76 77 
85 87 84 76 66 63 67 67 62 
62 66 63 53 45 55 74 80 74 
76 88 95 97 97 91 85 78 75 
83 87 88 83 72 64 83 96 97 
104 111 115 113 108 105 105 109 111 
112 111 109 107 104 101 101 103 105 
106 103 94 90 81 56 5 5 5 
46 69 78 75 72 78 85 90 96 
105 105 96 89 84 72 56 62 82 
88 96 108 113 114 108 95 86 79 
72 77 87 94 100 100 94 90 82 
76 74 78 84 85 82 72 60 57 
63 64 66 66 62 51 46 56 70 
77 72 78 88 92 92 91 88 89 
87 83 85 87 83 75 61 59 83 
93 98 105 110 113 113 106 101 98 
98 104 107 110 112 111 111 110 109 
109 109 110 107 96 90 86 71 5 
37 5 5 5 29 5 56 75 82 
84 82 75 76 81 87 93 104 109 
103 94 87 82 75 70 83 89 100 
110 113 109 100 89 80 70 73 85 
92 98 103 102 100 95 88 84 82 
81 82 82 77 72 64 55 58 64 
68 69 64 52 48 51 61 69 71 
80 82 80 83 88 89 94 95 96 
94 93 91 83 63 51 71 86 89 
95 104 110 111 105 96 90 90 95 
98 103 106 107 110 112 112 110 110 
112 108 99 91 89 81 50 5 5 
58 77 86 87 87 86 78 71 75 
86 91 100 109 108 101 94 88 85 
84 91 97 108 113 113 105 92 85 
75 70 82 92 97 100 97 95 98 
96 91 87 83 82 80 78 73 63 
62 58 57 63 72 70 57 44 47 
45 49 63 71 74 73 72 82 91 
96 98 103 103 102 100 94 89 79 
55 54 74 82 85 93 105 114 109 
99 90 86 87 89 91 94 96 100 
103 106 111 112 111 107 102 93 87 
84 57 5 5 5 16 5 31 5 
59 77 84 87 89 88 87 80 70 
70 83 90 96 108 111 108 104 99 
96 97 102 107 113 113 109 96 87 
80 73 80 90 96 98 91 83 85 
89 90 91 87 80 76 72 68 5 
5 5 5 5 53 5 5 5 5 
66 64 5 5 5 5 42 46 46 
58 67 70 73 74 82 89 94 100 
107 106 108 108 101 93 88 67 54 
72 83 86 90 98 111 113 105 98 
91 86 84 85 84 83 89 96 101 
109 113 110 105 98 90 88 85 60 
5 5 30 59 77 81 86 89 91 
94 89 84 73 63 73 87 89 101 
110 110 108 108 107 107 111 113 113 
112 103 92 85 72 73 88 92 95 
94 85 73 70 76 82 84 82 78 
73 68 60 5 54 5 52 5 52 
5 5 5 59 56 5 5 5 5 
54 59 61 65 68 71 81 87 91 
97 100 103 108 111 107 97 89 72 
67 82 90 90 92 99 111 114 111 
110 101 93 86 84 78 74 82 91 
100 110 112 106 99 93 90 90 83 
55 5 5 5 27 52 79 84 86 
89 95 100 100 92 87 79 64 64 
81 89 95 105 111 108 106 111 114 
114 113 112 110 100 87 79 69 77 
91 92 95 93 87 79 65 61 71 
77 80 79 5 5 5 5 5 5 
5 5 5 55 5 5 5 5 5 
5 64 68 79 84 89 95 95 97 
101 106 107 100 92 75 73 89 93 
95 101 107 113 116 113 114 112 103 
92 86 75 71 82 93 103 112 112 
100 92 88 88 82 71 49 5 22 
5 5 43 68 83 85 88 95 104 
108 103 95 89 85 76 64 71 87 
90 100 111 111 106 107 111 112 112 
112 109 99 88 81 74 83 91 94 
96 95 90 85 77 66 60 67 5 
5 5 5 5 5 66 72 77 80 
84 86 88 93 103 108 100 92 79 
80 92 94 101 108 112 114 116 113 
114 114 107 94 88 78 74 85 97 
105 110 106 95 88 84 80 67 53 
44 30 5 13 5 5 5 27 56 
71 81 86 88 95 104 110 108 101 
90 87 83 71 65 78 88 97 107 
112 110 110 112 112 111 112 109 101 
90 84 77 79 88 92 92 91 89 
86 82 78 67 5 5 5 62 63 
64 66 69 75 83 93 103 108 101 
92 81 83 94 97 103 106 109 111 
113 112 114 115 109 95 86 78 77 
87 98 106 111 104 93 88 81 72 
60 52 51 46 23 5 5 32 54 
67 79 84 85 86 94 107 111 104 
94 88 82 77 69 74 84 93 105 
114 113 113 112 113 112 110 109 101 
89 85 78 76 86 91 90 85 83 
84 81 75 72 5 5 55 57 59 
69 78 85 90 94 101 104 99 92 
82 81 92 95 97 99 102 104 106 
111 114 114 105 91 82 76 82 91 
101 109 109 101 92 87 79 68 64 
69 73 68 48 5 21 5 5 5 
24 37 48 62 75 79 80 82 88 
100 108 102 92 88 83 79 71 73 
83 93 105 113 111 113 114 112 112 
108 105 97 90 86 78 79 88 90 
91 85 77 76 75 69 67 5 5 
5 54 58 69 81 88 92 94 100 
102 97 93 82 70 80 90 88 87 
88 90 97 107 114 113 102 88 79 
80 89 94 102 110 109 98 89 84 
79 72 74 81 85 84 74 46 5 
20 5 5 5 22 37 44 47 63 
77 80 81 84 90 99 105 100 91 
85 81 77 75 78 85 96 106 110 
108 112 113 108 102 97 94 91 88 
84 75 80 88 90 92 85 74 68 
68 65 5 5 5 49 56 68 79 
86 90 94 97 97 96 93 79 63 
73 80 79 79 77 81 91 104 114 
114 100 84 78 81 90 94 104 110 
109 98 88 82 75 73 81 88 89 
86 83 71 42 5 5 5 15 37 
58 56 55 71 81 83 85 89 96 
104 105 99 90 83 78 76 78 83 
91 99 109 111 108 110 111 101 89 
84 85 86 83 75 72 82 87 91 
91 83 74 65 65 5 5 5 57 
66 73 80 87 89 91 93 94 92 
87 79 76 84 87 85 86 84 86 
94 105 114 113 99 84 78 81 88 
96 104 110 106 95 87 82 75 76 
83 88 91 90 87 83 69 5 45 
5 22 5 5 25 55 70 63 67 
80 84 89 94 97 102 106 103 97 
88 83 80 79 79 85 94 103 110 
112 111 111 109 95 84 79 75 73 
73 72 80 86 88 92 89 82 74 
64 64 5 5 5 72 75 78 81 
83 84 85 84 81 76 76 86 95 
95 96 96 95 98 104 111 115 112 
99 84 78 80 90 96 101 110 106 
95 87 80 74 78 86 91 96 96 
90 89 84 73 49 5 5 5 17 
5 23 45 66 68 69 77 84 86 
92 99 104 107 107 101 94 86 82 
80 80 82 88 96 106 110 110 112 
113 108 95 85 77 68 59 66 79 
87 88 92 93 87 82 78 74 69 
5 5 71 71 73 73 73 71 70 
66 63 69 82 90 96 103 105 106 
108 110 112 113 116 113 100 86 78 
78 87 95 101 109 107 95 88 78 
72 76 85 92 101 103 95 90 86 
84 77 5 5 5 16 24 47 64 
72 74 77 83 86 90 97 103 109 
108 104 99 91 84 80 78 81 84 
89 98 109 111 106 106 110 109 99 
88 83 74 63 71 84 88 91 95 
91 87 82 78 75 70 5 5 5 
5 76 68 64 64 64 59 56 68 
87 90 95 105 112 113 113 113 113 
113 117 116 104 87 77 76 83 89 
97 104 107 98 89 77 72 76 86 
94 104 108 103 94 89 86 86 5 
5 5 15 27 52 73 78 80 81 
83 87 91 98 106 108 109 107 102 
95 88 82 78 78 81 84 89 101 
109 109 103 101 108 112 105 93 86 
81 72 75 84 90 95 96 89 84 
79 75 70 5 5 5 79 74 73 
75 74 70 67 72 86 89 95 102 
111 114 115 115 114 114 117 117 110 
94 81 76 78 84 92 99 105 103 
95 84 78 80 89 98 106 109 106 
99 92 88 86 5 86 5 5 5 
16 26 55 75 82 84 85 86 89 
94 99 107 112 113 110 104 99 92 
86 82 80 80 82 84 92 103 110 
108 100 98 104 109 108 101 90 85 
78 76 81 89 95 95 87 83 76 
68 62 5 5 75 72 76 77 74 
75 76 76 83 87 93 98 102 108 
113 115 115 116 120 117 112 100 87 
79 77 81 86 93 100 105 103 95 
90 91 97 106 110 107 101 98 94 
91 88 87 5 5 5 16 23 52 
79 83 85 87 91 95 99 102 107 
110 110 112 112 106 99 92 86 83 
81 79 80 83 90 103 110 107 99 
96 100 108 110 106 94 86 82 77 
80 87 93 95 85 79 72 64 63 
5 5 66 68 69 71 72 80 82 
78 80 86 91 94 97 103 109 114 
116 116 117 116 116 108 94 84 78 
79 82 87 93 102 106 104 100 101 
106 109 105 98 92 91 90 88 88 
87 5 84 5 72 5 5 5 15 
21 46 77 85 86 89 93 98 102 
105 107 109 110 109 109 110 107 99 
92 87 84 81 78 78 81 88 101 
110 108 100 94 96 104 109 110 100 
89 83 76 75 85 91 92 86 79 
74 68 67 5 5 57 68 70 68 
72 80 83 77 80 85 89 91 92 
99 105 110 114 115 115 114 116 115 
101 90 83 79 79 81 85 92 101 
107 102 102 107 103 94 89 84 81 
83 85 86 84 79 71 5 58 5 
34 5 5 17 36 71 86 83 89 
95 98 102 103 103 103 104 108 108 
107 106 102 96 92 87 84 81 77 
74 79 87 99 110 109 101 94 93 
100 107 109 100 90 85 75 68 80 
89 92 86 81 75 70 69 5 5 
5 55 65 67 75 84 83 77 79 
86 92 94 94 98 104 109 114 117 
117 115 116 117 110 97 88 81 79 
76 80 86 93 100 100 99 98 91 
88 83 75 69 73 80 83 81 76 
67 65 57 5 28 5 5 5 14 
25 56 83 86 89 94 100 102 102 
101 100 100 102 104 104 104 103 99 
93 87 85 85 81 75 72 79 88 
101 112 109 102 97 95 101 108 110 
103 94 87 79 70 78 88 92 88 
83 77 72 71 5 5 42 56 64 
75 85 82 77 78 85 91 94 97 
99 104 109 113 115 116 114 115 118 
115 106 94 87 81 75 78 85 87 
90 93 91 89 86 83 75 60 57 
66 73 78 77 76 68 65 70 45 
5 5 5 15 19 40 69 83 87 
94 99 101 103 103 104 99 97 98 
98 99 98 94 92 89 84 81 81 
78 72 69 79 90 104 113 109 102 
97 98 103 109 110 106 96 87 83 
78 79 87 88 88 83 77 72 65 
5 5 46 59 64 74 83 80 76 
80 88 92 96 99 99 104 111 115 
116 116 116 115 115 116 112 102 92 
85 80 78 81 83 83 83 85 84 
79 72 62 55 60 71 76 78 78 
78 76 71 74 63 5 25 5 5 
14 27 56 76 83 87 92 98 102 
106 109 109 103 98 97 95 94 92 
89 87 84 82 79 77 76 76 76 
85 94 106 111 109 102 99 102 106 
110 109 106 97 89 85 80 79 86 
87 87 82 75 67 63 5 5 52 
60 66 70 77 77 74 83 88 92 
97 100 99 103 108 115 117 116 116 
115 115 116 115 108 96 90 84 77 
74 77 78 77 79 75 68 63 62 
68 74 78 80 82 82 83 85 85 
82 74 40 5 5 5 15 18 38 
61 75 84 86 88 93 98 106 111 
111 107 103 100 94 90 87 85 82 
79 77 78 80 79 82 85 91 100 
110 111 108 104 103 105 109 110 106 
101 95 88 85 82 77 82 85 85 
83 75 67 67 5 5 5 56 68 
70 70 71 73 83 88 93 98 101 
100 101 105 113 117 116 117 117 116 
114 115 109 95 89 84 74 69 73 
75 76 74 69 69 74 78 82 83 
86 87 87 89 88 89 91 88 84 
60 5 21 5 5 5 18 15 26 
47 56 65 80 83 85 87 92 100 
108 112 114 111 107 99 94 88 84 
81 78 73 75 80 83 85 90 97 
107 112 111 111 107 105 108 111 109 
101 97 96 88 84 83 76 82 85 
86 83 75 68 69 5 5 52 63 
70 67 66 74 85 89 93 97 97 
99 103 107 115 118 116 116 117 117 
115 113 103 90 85 78 72 75 82 
81 81 80 79 82 86 87 88 91 
95 96 98 99 98 96 94 87 86 
75 34 5 5 16 17 39 55 56 
59 71 79 83 83 88 92 100 110 
115 114 112 109 104 96 88 82 81 
77 75 79 84 86 93 103 111 112 
113 112 110 109 110 110 106 99 96 
94 89 86 85 78 80 82 85 84 
76 67 66 5 5 58 61 68 66 
62 73 86 90 95 98 95 98 103 
108 113 115 115 115 116 116 118 111 
98 87 80 72 75 84 86 87 88 
89 89 88 91 97 101 105 108 108 
109 108 104 99 95 90 89 82 48 
5 18 5 5 5 17 16 33 60 
71 72 69 66 71 79 84 86 86 
91 102 110 113 113 115 113 108 101 
92 85 83 79 78 83 87 89 101 
111 112 113 112 111 111 110 111 101 
96 96 95 91 85 83 79 76 80 
84 82 76 67 63 5 5 5 64 
68 67 62 73 87 91 96 98 95 
98 103 108 112 115 116 114 114 118 
118 108 92 83 77 77 83 86 90 
97 97 100 103 104 107 110 112 116 
115 111 104 98 95 90 89 89 85 
73 55 31 5 5 15 23 58 80 
82 84 82 74 66 65 77 83 85 
86 92 100 108 113 115 117 116 111 
104 91 86 84 80 81 85 87 98 
110 111 113 113 113 112 112 110 100 
98 98 96 91 84 81 73 67 76 
81 81 78 68 63 5 5 60 66 
69 63 75 86 89 94 96 95 97 
101 106 111 115 115 114 114 116 117 
105 89 81 77 83 89 93 102 108 
109 111 113 114 115 115 114 112 106 
99 91 88 85 84 81 80 78 71 
69 59 5 29 5 5 5 13 17 
45 79 85 85 86 85 82 76 65 
67 73 80 83 85 91 101 110 114 
116 116 115 112 102 90 85 80 77 
81 85 94 109 112 113 113 114 113 
112 106 98 99 99 97 91 85 82 
65 54 69 76 79 76 68 63 5 
5 53 64 70 67 74 85 91 94 
93 91 93 97 105 112 114 113 115 
114 113 116 105 89 82 82 86 95 
103 109 112 114 113 113 116 116 115 
110 101 94 89 84 81 78 76 76 
78 81 84 85 82 62 5 32 5 
5 12 30 71 86 85 89 89 87 
84 82 79 71 68 73 78 82 85 
91 102 111 115 116 115 113 106 93 
85 82 80 83 87 96 111 114 113 
113 113 112 111 104 97 97 98 98 
92 86 84 65 52 66 73 72 70 
66 60 5 5 5 50 51 64 69 
65 71 84 90 93 91 88 87 90 
101 112 114 114 114 115 113 116 111 
97 90 91 96 102 106 109 112 114 
115 117 116 113 110 100 90 87 85 
80 75 74 76 82 85 87 90 90 
88 82 63 5 5 16 50 85 89 
89 95 98 95 90 86 85 83 76 
72 73 79 82 86 94 105 114 116 
115 112 107 95 86 83 81 85 89 
99 111 113 111 111 111 108 110 104 
97 95 94 93 91 85 82 74 65 
71 73 67 61 57 56 5 5 46 
54 67 73 66 68 80 87 91 90 
86 83 86 93 107 116 116 114 114 
116 116 113 108 104 105 107 104 102 
104 108 113 114 116 116 111 100 90 
86 82 77 76 76 79 83 86 87 
90 91 92 90 86 80 5 49 5 
5 5 14 23 63 85 88 91 100 
104 103 96 92 86 85 84 79 74 
70 75 83 88 97 110 115 114 112 
108 96 86 81 79 85 88 94 107 
111 110 112 114 110 113 106 97 94 
92 90 89 84 85 82 77 78 76 
68 58 46 50 5 5 51 62 72 
75 67 66 75 84 87 86 82 81 
84 89 100 113 116 115 114 115 116 
115 114 112 112 110 103 101 101 106 
113 115 115 113 103 91 86 82 77 
74 79 82 85 86 88 94 100 100 
95 91 86 86 66 5 5 16 38 
73 86 91 94 99 105 104 98 95 
89 87 86 83 80 73 73 79 84 
91 101 111 114 116 111 98 86 78 
75 83 86 89 100 106 108 111 115 
112 114 109 98 92 88 86 86 85 
86 85 82 80 79 75 66 51 48 
5 5 49 62 75 73 66 67 72 
80 83 83 78 78 83 87 96 107 
115 116 115 114 116 116 116 116 114 
112 105 99 100 106 113 115 115 108 
94 87 82 77 78 82 84 86 90 
93 100 106 111 109 102 92 88 87 
79 5 39 5 5 22 61 84 89 
92 95 99 105 102 97 93 90 86 
85 83 83 81 76 77 82 87 96 
109 113 116 111 98 87 80 75 78 
82 86 96 104 108 112 114 113 112 
109 100 91 85 84 84 87 88 86 
85 84 83 80 77 63 49 5 54 
5 5 49 61 73 70 68 70 73 
79 82 81 77 76 84 87 95 104 
113 117 115 111 115 116 116 117 117 
115 110 103 102 108 113 114 114 102 
88 83 77 78 82 85 87 92 98 
105 111 114 110 107 102 93 89 88 
84 49 5 5 36 77 87 89 94 
100 102 103 100 96 90 85 82 81 
83 82 82 80 79 81 86 93 108 
114 115 113 103 91 82 78 78 81 
86 94 102 108 114 113 111 110 110 
102 93 87 86 86 89 90 91 91 
88 85 81 79 70 52 50 5 56 
5 5 53 64 70 64 66 72 77 
80 82 80 77 76 84 87 94 102 
110 117 116 110 112 117 116 116 117 
116 112 107 107 112 115 117 114 100 
88 80 78 81 85 89 96 104 111 
114 113 109 100 93 89 89 88 88 
81 55 5 5 5 17 48 83 86 
91 98 103 105 101 98 92 88 82 
78 79 84 82 82 80 80 80 85 
92 108 115 114 114 111 101 91 86 
87 87 90 96 104 111 114 112 111 
110 111 106 96 91 90 91 95 97 
97 94 91 87 81 80 75 59 50 
53 5 5 58 64 62 55 66 75 
77 81 83 82 79 80 86 89 96 
103 109 114 115 113 112 116 117 118 
118 116 114 111 112 116 116 117 114 
104 91 85 84 86 93 101 109 114 
114 111 105 96 86 81 83 85 85 
85 72 55 5 28 5 5 18 59 
87 87 92 101 106 105 98 96 91 
86 80 75 80 84 82 82 80 81 
83 89 99 111 115 115 115 116 111 
105 100 97 96 99 104 110 113 113 
111 110 109 111 108 101 97 96 97 
99 101 102 99 94 89 82 80 77 
64 52 53 5 5 62 68 56 47 
69 78 78 82 84 85 84 85 89 
97 104 108 110 113 113 113 113 115 
118 119 118 117 116 115 117 118 118 
117 115 110 102 98 97 101 107 113 
115 114 109 101 93 85 80 79 81 
80 82 82 64 52 35 5 5 5 
14 21 66 89 87 91 102 106 103 
95 91 87 85 78 74 80 83 83 
83 82 83 85 94 108 115 115 116 
115 115 115 114 112 111 109 110 112 
115 115 112 111 111 109 107 105 104 
101 99 100 101 102 100 98 95 90 
85 80 79 68 56 54 5 5 61 
70 55 48 71 80 81 85 86 86 
85 89 95 102 103 105 107 109 111 
111 111 112 114 116 119 118 116 119 
119 118 118 117 117 116 114 112 110 
112 114 114 111 103 95 88 83 79 
78 76 79 79 78 76 62 56 42 
5 16 5 5 12 23 69 88 88 
90 98 103 100 95 89 85 82 77 
74 78 82 84 84 84 87 95 105 
114 116 116 116 115 114 115 115 115 
115 116 113 113 115 115 113 111 111 
108 103 100 99 97 96 96 96 96 
94 92 92 87 84 80 79 71 58 
54 5 52 5 5 65 71 58 54 
71 78 82 84 84 86 89 94 97 
96 94 95 94 94 99 108 113 113 
113 113 117 118 117 118 119 118 117 
117 117 117 116 116 114 114 115 112 
100 89 83 79 76 73 71 71 72 
73 75 72 62 59 47 20 5 5 