# vtk DataFile Version 4.0
vtk output
ASCII
DATASET POLYDATA
POINTS 19769 float
17.6875 -107 -9 17 -107.688 -9 17 -107 -9 
16 -107.667 -9 16 -107 -9 15 -107.737 -9 
15 -107 -9 14 -107.783 -9 14 -107 -9 
13 -107.828 -9 13 -107 -9 12 -107.839 -9 
12 -107 -9 11 -107.833 -9 11 -107 -9 
10 -107.833 -9 10 -107 -9 9 -107.821 -9 
9 -107 -9 8 -107.762 -9 8 -107 -9 
7.2381 -107 -9 21.7059 -106 -9 21 -106.706 -9 
21 -106 -9 20 -106.688 -9 20 -106 -9 
19 -106.688 -9 19 -106 -9 18 -106.737 -9 
18 -106 -9 17 -106 -9 16 -106 -9 
15 -106 -9 14 -106 -9 13 -106 -9 
12 -106 -9 11 -106 -9 10 -106 -9 
9 -106 -9 8 -106 -9 7 -106.848 -9 
7 -106 -9 6 -106.8 -9 6 -106 -9 
5 -106.773 -9 5 -106 -9 4 -106.783 -9 
4 -106 -9 3.21739 -106 -9 23.6667 -105 -9 
23 -105.667 -9 23 -105 -9 22 -105.688 -9 
22 -105 -9 21 -105 -9 20 -105 -9 
19 -105 -9 18 -105 -9 17 -105 -9 
16 -105 -9 15 -105 -9 14 -105 -9 
13 -105 -9 12 -105 -9 11 -105 -9 
10 -105 -9 9 -105 -9 8 -105 -9 
7 -105 -9 6 -105 -9 5 -105 -9 
4 -105 -9 3.18519 -105 -9 -15.2381 -105 -9 
-16 -105.762 -9 -16 -105 -9 -17 -105.815 -9 
-17 -105 -9 -18 -105.833 -9 -18 -105 -9 
-19 -105.833 -9 -19 -105 -9 -20 -105.815 -9 
-20 -105 -9 -21 -105.773 -9 -21 -105 -9 
-21.7727 -105 -9 24.6875 -104 -9 24 -104.688 -9 
24 -104 -9 23 -104 -9 22 -104 -9 
21 -104 -9 20 -104 -9 19 -104 -9 
18 -104 -9 17 -104 -9 16 -104 -9 
15 -104 -9 14 -104 -9 13 -104 -9 
12 -104 -9 11 -104 -9 10 -104 -9 
9 -104 -9 8 -104 -9 7 -104 -9 
6 -104 -9 5 -104 -9 4 -104 -9 
3.1 -104 -9 -13.2174 -104 -9 -14 -104.783 -9 
-14 -104 -9 -15 -104.865 -9 -15 -104 -9 
-16 -104 -9 -17 -104 -9 -18 -104 -9 
-19 -104 -9 -20 -104 -9 -21 -104 -9 
-22 -104.878 -9 -22 -104 -9 -23 -104.808 -9 
-23 -104 -9 -24 -104.722 -9 -24 -104 -9 
-24.7222 -104 -9 26.7059 -103 -9 26 -103.706 -9 
26 -103 -9 25 -103.706 -9 25 -103 -9 
24 -103 -9 23 -103 -9 22 -103 -9 
21 -103 -9 20 -103 -9 19 -103 -9 
18 -103 -9 17 -103 -9 16 -103 -9 
15 -103 -9 14 -103 -9 13 -103 -9 
12 -103 -9 11 -103 -9 10 -103 -9 
9 -103 -9 8 -103 -9 7 -103 -9 
6 -103 -9 5 -103 -9 4 -103 -9 
3 -103.914 -9 3 -103 -9 2 -103.878 -9 
2 -103 -9 1.12195 -103 -9 -12.1667 -103 -9 
-13 -103.833 -9 -13 -103 -9 -14 -103 -9 
-15 -103 -9 -16 -103 -9 -17 -103 -9 
-18 -103 -9 -19 -103 -9 -20 -103 -9 
-21 -103 -9 -22 -103 -9 -23 -103 -9 
-24 -103 -9 -25 -103.828 -9 -25 -103 -9 
-26 -103.737 -9 -26 -103 -9 -26.7368 -103 -9 
27.7222 -102 -9 27 -102.722 -9 27 -102 -9 
26 -102 -9 25 -102 -9 24 -102 -9 
23 -102 -9 22 -102 -9 21 -102 -9 
20 -102 -9 19 -102 -9 18 -102 -9 
17 -102 -9 16 -102 -9 15 -102 -9 
14 -102 -9 13 -102 -9 12 -102 -9 
11 -102 -9 10 -102 -9 9 -102 -9 
8 -102 -9 7 -102 -9 6 -102 -9 
5 -102 -9 4 -102 -9 3 -102 -9 
2 -102 -9 1 -102.894 -9 1 -102 -9 
0.106383 -102 -9 -12.0962 -102 -9 -13 -102 -9 
-14 -102 -9 -15 -102 -9 -16 -102 -9 
-17 -102 -9 -18 -102 -9 -19 -102 -9 
-20 -102 -9 -21 -102 -9 -22 -102 -9 
-23 -102 -9 -24 -102 -9 -25 -102 -9 
-26 -102 -9 -27 -102.857 -9 -27 -102 -9 
-28 -102.773 -9 -28 -102 -9 -28.7727 -102 -9 
29.7222 -101 -9 29 -101.722 -9 29 -101 -9 
28 -101.783 -9 28 -101 -9 27 -101 -9 
26 -101 -9 25 -101 -9 24 -101 -9 
23 -101 -9 22 -101 -9 21 -101 -9 
20 -101 -9 19 -101 -9 18 -101 -9 
17 -101 -9 16 -101 -9 15 -101 -9 
14 -101 -9 13 -101 -9 12 -101 -9 
11 -101 -9 10 -101 -9 9 -101 -9 
8 -101 -9 7 -101 -9 6 -101 -9 
5 -101 -9 4 -101 -9 3 -101 -9 
2 -101 -9 1 -101 -9 0.0847458 -101 -9 
-12.0714 -101 -9 -13 -101 -9 -14 -101 -9 
-15 -101 -9 -16 -101 -9 -17 -101 -9 
-18 -101 -9 -19 -101 -9 -20 -101 -9 
-21 -101 -9 -22 -101 -9 -23 -101 -9 
-24 -101 -9 -25 -101 -9 -26 -101 -9 
-27 -101 -9 -28 -101 -9 -29 -101.848 -9 
-29 -101 -9 -30 -101.762 -9 -30 -101 -9 
-31 -101.688 -9 -31 -101 -9 -32 -101.667 -9 
-32 -101 -9 -32.6667 -101 -9 30.7059 -100 -9 
30 -100.706 -9 30 -100 -9 29 -100 -9 
28 -100 -9 27 -100 -9 26 -100 -9 
25 -100 -9 24 -100 -9 23 -100 -9 
22 -100 -9 21 -100 -9 20 -100 -9 
19 -100 -9 18 -100 -9 17 -100 -9 
16 -100 -9 15 -100 -9 14 -100 -9 
13 -100 -9 12 -100 -9 11 -100 -9 
10 -100 -9 9 -100 -9 8 -100 -9 
7 -100 -9 6 -100 -9 5 -100 -9 
4 -100 -9 3 -100 -9 2 -100 -9 
1 -100 -9 0 -100.919 -9 0 -100 -9 
-0.919355 -100 -9 -1.08621 -100 -9 -2 -100.914 -9 
-2 -100 -9 -3 -100.923 -9 -3 -100 -9 
-3.92308 -100 -9 -11.0758 -100 -9 -12 -100.924 -9 
-12 -100 -9 -13 -100 -9 -14 -100 -9 
-15 -100 -9 -16 -100 -9 -17 -100 -9 
-18 -100 -9 -19 -100 -9 -20 -100 -9 
-21 -100 -9 -22 -100 -9 -23 -100 -9 
-24 -100 -9 -25 -100 -9 -26 -100 -9 
-27 -100 -9 -28 -100 -9 -29 -100 -9 
-30 -100 -9 -31 -100 -9 -32 -100 -9 
-33 -100.667 -9 -33 -100 -9 -33.6667 -100 -9 
31.7059 -99 -9 31 -99.7059 -9 31 -99 -9 
30 -99 -9 29 -99 -9 28 -99 -9 
27 -99 -9 26 -99 -9 25 -99 -9 
24 -99 -9 23 -99 -9 22 -99 -9 
21 -99 -9 20 -99 -9 19 -99 -9 
18 -99 -9 17 -99 -9 16 -99 -9 
15 -99 -9 14 -99 -9 13 -99 -9 
12 -99 -9 11 -99 -9 10 -99 -9 
9 -99 -9 8 -99 -9 7 -99 -9 
6 -99 -9 5 -99 -9 4 -99 -9 
3 -99 -9 2 -99 -9 1 -99 -9 
0 -99 -9 -1 -99.9324 -9 -1 -99 -9 
-2 -99 -9 -3 -99 -9 -3.93421 -99 -9 
-11.0649 -99 -9 -12 -99 -9 -13 -99 -9 
-14 -99 -9 -15 -99 -9 -16 -99 -9 
-17 -99 -9 -18 -99 -9 -19 -99 -9 
-20 -99 -9 -21 -99 -9 -22 -99 -9 
-23 -99 -9 -24 -99 -9 -25 -99 -9 
-26 -99 -9 -27 -99 -9 -28 -99 -9 
-29 -99 -9 -30 -99 -9 -31 -99 -9 
-32 -99 -9 -33 -99 -9 -34 -99.7222 -9 
-34 -99 -9 -35 -99.6875 -9 -35 -99 -9 
-35.6875 -99 -9 33.6875 -98 -9 33 -98.6875 -9 
33 -98 -9 32 -98.7059 -9 32 -98 -9 
31 -98 -9 30 -98 -9 29 -98 -9 
28 -98 -9 27 -98 -9 26 -98 -9 
25 -98 -9 24 -98 -9 23 -98 -9 
22 -98 -9 21 -98 -9 20 -98 -9 
19 -98 -9 18 -98 -9 17 -98 -9 
16 -98 -9 15 -98 -9 14 -98 -9 
13 -98 -9 12 -98 -9 11 -98 -9 
10 -98 -9 9 -98 -9 8 -98 -9 
7 -98 -9 6 -98 -9 5 -98 -9 
4 -98 -9 3 -98 -9 2 -98 -9 
1 -98 -9 0 -98 -9 -1 -98 -9 
-2 -98 -9 -3 -98 -9 -3.93056 -98 -9 
-11.0602 -98 -9 -12 -98 -9 -13 -98 -9 
-14 -98 -9 -15 -98 -9 -16 -98 -9 
-17 -98 -9 -18 -98 -9 -19 -98 -9 
-20 -98 -9 -21 -98 -9 -22 -98 -9 
-23 -98 -9 -24 -98 -9 -25 -98 -9 
-26 -98 -9 -27 -98 -9 -28 -98 -9 
-29 -98 -9 -30 -98 -9 -31 -98 -9 
-32 -98 -9 -33 -98 -9 -34 -98 -9 
-35 -98 -9 -36 -98.7727 -9 -36 -98 -9 
-37 -98.7222 -9 -37 -98 -9 -37.7222 -98 -9 
36.7059 -97 -9 36 -97.7059 -9 36 -97 -9 
35 -97.6667 -9 35 -97 -9 34 -97.6875 -9 
34 -97 -9 33 -97 -9 32 -97 -9 
31 -97 -9 30 -97 -9 29 -97 -9 
28 -97 -9 27 -97 -9 26 -97 -9 
25 -97 -9 24 -97 -9 23 -97 -9 
22 -97 -9 21 -97 -9 20 -97 -9 
19 -97 -9 18 -97 -9 17 -97 -9 
16 -97 -9 15 -97 -9 14 -97 -9 
13 -97 -9 12 -97 -9 11 -97 -9 
10 -97 -9 9 -97 -9 8 -97 -9 
7 -97 -9 6 -97 -9 5 -97 -9 
4 -97 -9 3 -97 -9 2 -97 -9 
1 -97 -9 0 -97 -9 -1 -97 -9 
-2 -97 -9 -3 -97 -9 -3.92754 -97 -9 
-9.08333 -97 -9 -10 -97.9167 -9 -10 -97 -9 
-11 -97.9242 -9 -11 -97 -9 -12 -97 -9 
-13 -97 -9 -14 -97 -9 -15 -97 -9 
-16 -97 -9 -17 -97 -9 -18 -97 -9 
-19 -97 -9 -20 -97 -9 -21 -97 -9 
-22 -97 -9 -23 -97 -9 -24 -97 -9 
-25 -97 -9 -26 -97 -9 -27 -97 -9 
-28 -97 -9 -29 -97 -9 -30 -97 -9 
-31 -97 -9 -32 -97 -9 -33 -97 -9 
-34 -97 -9 -35 -97 -9 -36 -97 -9 
-37 -97 -9 -38 -97.75 -9 -38 -97 -9 
-38.75 -97 -9 38.7368 -96 -9 38 -96.7368 -9 
38 -96 -9 37.2632 -96 -9 36 -96.2941 -9 
35.7619 -96 -9 35 -96 -9 34 -96 -9 
33 -96 -9 32 -96 -9 31 -96 -9 
30 -96 -9 29 -96 -9 28 -96 -9 
27 -96 -9 26 -96 -9 25 -96 -9 
24 -96 -9 23 -96 -9 22 -96 -9 
21 -96 -9 20 -96 -9 19 -96 -9 
18 -96 -9 17 -96 -9 16 -96 -9 
15 -96 -9 14 -96 -9 13 -96 -9 
12 -96 -9 11 -96 -9 10 -96 -9 
9 -96 -9 8 -96 -9 7 -96 -9 
6 -96 -9 5 -96 -9 4 -96 -9 
3 -96 -9 2 -96 -9 1 -96 -9 
0 -96 -9 -1 -96 -9 -2 -96 -9 
-3 -96 -9 -3.93056 -96 -9 -9.08333 -96 -9 
-10 -96 -9 -11 -96 -9 -12 -96 -9 
-13 -96 -9 -14 -96 -9 -15 -96 -9 
-16 -96 -9 -17 -96 -9 -18 -96 -9 
-19 -96 -9 -20 -96 -9 -21 -96 -9 
-22 -96 -9 -23 -96 -9 -24 -96 -9 
-25 -96 -9 -26 -96 -9 -27 -96 -9 
-28 -96 -9 -29 -96 -9 -30 -96 -9 
-31 -96 -9 -32 -96 -9 -33 -96 -9 
-34 -96 -9 -35 -96 -9 -36 -96 -9 
-37 -96 -9 -38 -96 -9 -39 -96.7826 -9 
-39 -96 -9 -40 -96.6875 -9 -40 -96 -9 
-40.6875 -96 -9 38.6667 -95 -9 38 -95 -9 
37.3333 -95 -9 36.8485 -95 -9 36 -95.8485 -9 
36 -95 -9 35 -95 -9 34 -95 -9 
33 -95 -9 32 -95 -9 31 -95 -9 
30 -95 -9 29 -95 -9 28 -95 -9 
27 -95 -9 26 -95 -9 25 -95 -9 
24 -95 -9 23 -95 -9 22 -95 -9 
21 -95 -9 20 -95 -9 19 -95 -9 
18 -95 -9 17 -95 -9 16 -95 -9 
15 -95 -9 14 -95 -9 13 -95 -9 
12 -95 -9 11 -95 -9 10 -95 -9 
9 -95 -9 8 -95 -9 7 -95 -9 
6 -95 -9 5 -95 -9 4 -95 -9 
3 -95 -9 2 -95 -9 1 -95 -9 
0 -95 -9 -1 -95 -9 -2 -95 -9 
-3 -95 -9 -3.92537 -95 -9 -9.08065 -95 -9 
-10 -95 -9 -11 -95 -9 -12 -95 -9 
-13 -95 -9 -14 -95 -9 -15 -95 -9 
-16 -95 -9 -17 -95 -9 -18 -95 -9 
-19 -95 -9 -20 -95 -9 -21 -95 -9 
-22 -95 -9 -23 -95 -9 -24 -95 -9 
-25 -95 -9 -26 -95 -9 -27 -95 -9 
-28 -95 -9 -29 -95 -9 -30 -95 -9 
-31 -95 -9 -32 -95 -9 -33 -95 -9 
-34 -95 -9 -35 -95 -9 -36 -95 -9 
-37 -95 -9 -38 -95 -9 -39 -95 -9 
-40 -95 -9 -41 -95.7059 -9 -41 -95 -9 
-41.7059 -95 -9 40.6875 -94 -9 40 -94.6875 -9 
40 -94 -9 39.3125 -94 -9 38.7619 -94 -9 
38 -94 -9 37 -94.875 -9 37 -94 -9 
36 -94 -9 35 -94 -9 34 -94 -9 
33 -94 -9 32 -94 -9 31 -94 -9 
30 -94 -9 29 -94 -9 28 -94 -9 
27 -94 -9 26 -94 -9 25 -94 -9 
24 -94 -9 23 -94 -9 22 -94 -9 
21 -94 -9 20 -94 -9 19 -94 -9 
18 -94 -9 17 -94 -9 16 -94 -9 
15 -94 -9 14 -94 -9 13 -94 -9 
12 -94 -9 11 -94 -9 10 -94 -9 
9 -94 -9 8 -94 -9 7 -94 -9 
6 -94 -9 5 -94 -9 4 -94 -9 
3 -94 -9 2 -94 -9 1 -94 -9 
0 -94 -9 -1 -94 -9 -2 -94 -9 
-3 -94 -9 -3.91071 -94 -9 -7.08333 -94 -9 
-8 -94.9167 -9 -8 -94 -9 -9 -94.9194 -9 
-9 -94 -9 -10 -94 -9 -11 -94 -9 
-12 -94 -9 -13 -94 -9 -14 -94 -9 
-15 -94 -9 -16 -94 -9 -17 -94 -9 
-18 -94 -9 -19 -94 -9 -20 -94 -9 
-21 -94 -9 -22 -94 -9 -23 -94 -9 
-24 -94 -9 -25 -94 -9 -26 -94 -9 
-27 -94 -9 -28 -94 -9 -29 -94 -9 
-30 -94 -9 -31 -94 -9 -32 -94 -9 
-33 -94 -9 -34 -94 -9 -35 -94 -9 
-36 -94 -9 -37 -94 -9 -38 -94 -9 
-39 -94 -9 -40 -94 -9 -41 -94 -9 
-42 -94.7059 -9 -42 -94 -9 -42.7059 -94 -9 
41.6875 -93 -9 41 -93.6875 -9 41 -93 -9 
40 -93 -9 39.3333 -93 -9 38.881 -93 -9 
38 -93 -9 37 -93 -9 36 -93 -9 
35 -93 -9 34 -93 -9 33 -93 -9 
32 -93 -9 31 -93 -9 30 -93 -9 
[...]
POINT_DATA 19769
SCALARS scalars float
LOOKUP_TABLE default
5 5 16 5 15 5 19 5 23 
5 29 5 31 5 30 5 30 5 
28 5 21 5 5 5 17 5 16 
5 16 5 19 24 29 35 39 45 
53 52 47 41 35 5 33 5 25 
5 22 5 23 5 5 5 15 5 
16 19 24 33 44 54 60 65 67 
69 77 81 78 70 64 63 53 38 
27 5 5 5 21 5 27 5 30 
5 30 5 27 5 22 5 5 5 
16 18 27 39 50 57 63 69 70 
70 72 73 79 87 90 84 81 80 
75 67 50 5 5 5 23 5 37 
55 71 79 79 74 60 5 41 5 
26 5 18 5 5 5 17 5 17 
26 40 55 65 68 67 71 73 73 
72 72 72 74 83 93 93 86 85 
82 80 77 5 58 5 41 5 5 
5 30 51 77 93 98 100 99 99 
93 75 57 43 5 29 5 19 5 
5 5 18 25 36 52 69 71 74 
80 80 77 73 68 66 67 68 66 
72 87 94 93 87 83 77 77 74 
61 5 47 5 5 52 78 98 101 
102 104 103 103 100 88 78 74 69 
53 5 35 5 22 5 5 5 18 
5 23 38 54 66 74 80 79 76 
81 85 84 79 73 72 76 77 73 
75 90 102 100 94 84 74 67 66 
65 59 5 5 70 92 100 102 106 
107 105 101 94 91 93 93 93 88 
78 57 5 33 5 21 5 16 5 
15 5 5 5 17 29 50 70 79 
82 83 83 80 76 79 86 90 85 
80 79 84 86 86 88 97 108 109 
102 93 84 73 59 55 60 5 62 
5 5 5 58 5 65 5 5 5 
66 87 99 99 102 110 106 98 93 
90 93 98 101 105 102 95 80 63 
51 33 19 5 15 5 5 5 17 
32 57 76 85 87 87 86 84 80 
78 78 84 91 91 83 81 84 86 
89 95 102 109 116 114 102 95 81 
60 50 55 65 5 74 78 76 5 
5 77 98 101 102 104 110 109 100 
93 94 97 101 106 109 105 100 90 
77 71 61 45 28 5 18 5 16 
5 5 5 16 5 17 32 58 80 
89 95 97 91 86 83 82 82 82 
84 89 91 85 82 85 90 96 103 
109 111 111 112 110 101 84 59 48 
51 62 72 78 72 5 5 83 99 
102 108 111 111 114 110 106 106 105 
108 112 115 110 102 93 85 78 71 
66 61 49 31 5 22 5 18 5 
5 5 17 5 15 5 16 22 37 
54 71 86 95 101 103 97 88 82 
82 85 86 87 92 94 91 88 92 
98 104 108 109 108 106 102 100 95 
78 56 48 48 57 70 77 69 5 
5 5 60 5 66 87 99 104 104 
104 104 106 105 108 111 112 112 113 
114 113 107 99 94 88 87 86 87 
88 76 55 31 5 20 5 5 5 
19 5 5 5 21 34 52 61 66 
72 84 93 100 106 104 95 87 85 
89 92 94 99 102 99 97 99 105 
110 109 108 106 100 91 81 75 72 
73 71 63 58 62 71 72 5 5 
60 68 83 93 97 96 94 91 90 
93 97 102 106 109 112 114 114 112 
109 104 100 98 98 100 99 95 90 
74 46 5 23 5 16 5 5 15 
5 5 5 33 50 66 74 73 72 
74 79 91 101 108 109 102 94 91 
96 102 103 105 106 106 104 101 102 
105 107 107 105 95 86 78 76 82 
89 92 89 75 61 59 67 5 5 
62 75 78 78 81 84 79 72 74 
79 84 88 94 103 110 114 113 112 
114 113 109 106 106 106 105 102 97 
92 81 53 25 5 17 5 5 5 
16 5 5 21 5 40 60 70 74 
77 76 72 66 73 89 101 110 114 
110 105 102 106 110 111 109 109 107 
103 95 93 97 102 108 108 100 91 
86 87 93 94 94 94 87 70 51 
56 5 5 5 60 5 62 70 77 
71 70 75 74 64 63 80 90 90 
89 95 106 110 113 112 110 110 107 
108 107 108 108 106 106 103 96 90 
80 56 30 5 17 5 5 5 16 
15 5 5 42 61 69 72 76 75 
72 66 63 72 88 99 110 116 114 
112 110 112 113 113 112 110 108 102 
90 82 87 96 101 105 105 101 99 
101 99 95 94 92 90 80 56 55 
5 5 64 67 78 84 85 85 87 
79 67 79 98 99 101 100 102 110 
113 113 110 103 96 95 99 98 98 
98 95 94 94 93 91 85 76 60 
33 5 17 5 5 5 14 13 25 
5 44 53 58 66 71 72 70 68 
65 64 73 90 100 108 115 115 114 
110 109 111 110 111 112 108 102 89 
74 73 84 93 100 104 104 102 101 
100 96 95 94 92 84 67 61 5 
5 5 66 68 74 85 92 94 96 
97 81 73 92 103 102 108 108 109 
114 114 110 105 91 78 80 85 87 
87 85 81 82 83 86 88 85 81 
78 65 37 5 5 5 24 45 51 
46 58 70 72 74 76 74 73 75 
83 94 103 108 114 113 110 105 100 
99 102 107 112 110 104 93 79 68 
70 80 91 100 104 102 95 94 90 
89 89 88 81 67 61 5 64 5 
68 5 76 76 78 86 93 95 97 
100 95 79 75 91 98 100 107 108 
109 112 111 107 99 80 73 80 85 
87 88 85 81 83 86 88 89 89 
87 86 88 72 5 37 5 5 5 
22 44 50 44 50 68 78 82 86 
88 86 84 83 88 96 106 111 114 
114 109 100 91 86 90 98 107 110 
108 98 89 79 67 66 77 92 100 
101 94 90 84 78 72 73 72 65 
63 65 69 76 78 83 95 99 101 
103 98 89 82 89 95 92 92 93 
96 101 104 105 102 91 79 81 90 
94 96 95 94 94 95 97 97 96 
93 93 94 94 89 60 5 24 5 
5 5 14 5 22 43 52 47 46 
58 80 87 94 97 96 94 95 96 
99 102 107 112 115 113 111 101 89 
81 78 86 98 108 111 107 97 91 
79 62 64 81 97 102 96 89 79 
67 55 54 61 61 63 5 5 5 
69 72 79 90 97 100 103 102 90 
81 84 98 102 98 94 84 79 83 
91 94 89 77 80 87 94 98 104 
106 104 103 104 105 105 105 103 100 
98 96 89 71 40 5 5 5 11 
19 39 47 50 55 54 57 81 93 
98 103 106 104 106 106 106 108 109 
113 115 114 111 102 92 86 75 77 
91 101 107 111 102 94 88 67 58 
76 94 100 97 91 88 79 64 54 
59 62 62 5 66 67 74 89 97 
100 104 103 94 84 79 87 102 107 
106 99 91 83 77 76 71 65 65 
81 92 96 106 112 113 113 112 111 
111 109 108 107 106 101 95 87 74 
53 5 30 5 5 17 33 44 49 
61 67 64 61 73 87 94 101 108 
112 112 113 111 111 112 113 114 113 
113 107 95 90 76 63 75 92 98 
106 107 99 91 78 64 77 92 95 
96 91 91 89 81 71 65 62 63 
65 73 88 97 99 103 102 93 88 
83 80 90 103 110 111 106 99 95 
88 81 68 54 59 84 94 99 111 
116 115 113 113 110 108 105 104 103 
99 95 89 79 69 61 43 5 23 
5 5 33 49 51 68 82 84 81 
74 68 79 90 95 102 110 113 115 
114 114 114 113 115 115 113 108 94 
89 73 50 59 82 90 98 106 104 
94 82 71 80 92 95 96 92 89 
88 84 74 66 63 65 72 87 95 
98 102 100 93 84 85 89 94 100 
106 112 112 110 107 104 98 95 87 
74 73 88 96 102 110 113 112 111 
110 105 101 100 98 96 92 87 81 
74 71 72 64 42 5 17 5 5 
5 27 54 61 66 82 90 92 92 
88 80 75 80 88 93 99 106 113 
114 114 113 114 115 113 111 106 91 
84 74 67 76 79 81 90 100 105 
98 89 80 80 90 94 94 93 90 
86 78 66 59 63 68 81 92 96 
98 100 95 89 86 93 99 103 105 
109 114 114 113 111 106 100 96 89 
83 84 90 97 105 112 114 114 111 
108 103 95 93 93 89 84 77 73 
78 84 87 84 68 33 5 5 5 
20 43 63 65 74 85 90 95 95 
94 90 79 70 75 86 90 95 107 
114 114 114 113 114 112 109 98 88 
81 77 83 90 86 80 81 90 100 
100 94 85 79 86 90 92 94 90 
83 71 56 53 58 68 86 94 96 
97 96 90 89 92 102 105 109 109 
108 108 109 110 108 103 96 89 86 
85 87 92 99 107 112 112 114 112 
111 106 96 90 87 81 76 74 77 
85 92 93 91 85 55 5 22 5 
5 5 19 36 59 70 75 81 85 
88 95 103 101 91 87 78 65 70 
83 89 97 108 115 115 112 115 114 
105 92 85 78 83 90 94 93 84 
77 81 90 98 98 92 83 82 86 
89 91 86 78 64 51 53 58 70 
87 95 95 93 89 86 89 98 105 
106 104 98 95 97 101 103 101 96 
87 82 84 88 91 97 104 110 112 
112 114 115 113 110 100 90 84 78 
75 78 87 95 99 97 93 91 77 
39 5 5 5 14 5 21 41 64 
79 83 88 86 84 84 91 104 110 
99 92 88 71 58 72 88 92 103 
114 114 112 114 111 98 88 81 78 
87 93 99 98 89 78 77 81 89 
95 94 89 81 79 78 81 80 70 
54 50 55 57 73 87 92 91 84 
80 86 93 101 106 105 98 89 81 
83 90 94 93 87 81 82 88 94 
101 106 109 114 113 114 113 115 113 
113 108 99 92 88 87 90 95 101 
107 103 93 88 87 62 5 25 5 
5 25 46 68 82 88 87 89 88 
84 84 89 99 111 110 97 90 84 
68 71 86 92 103 112 114 115 110 
104 92 83 75 77 88 96 105 106 
97 87 81 81 85 91 94 92 87 
80 69 69 69 61 50 55 62 62 
75 84 88 83 74 77 89 96 103 
107 104 93 87 76 78 84 88 86 
76 68 82 92 96 104 110 113 114 
112 116 112 114 113 114 115 110 105 
102 100 102 106 109 110 106 99 90 
90 80 43 5 5 5 15 5 27 
53 73 83 87 90 92 92 88 84 
83 86 97 110 113 103 93 88 77 
73 85 94 107 112 113 114 108 98 
87 80 76 82 92 100 107 107 105 
100 92 88 89 92 94 90 87 85 
71 62 63 57 53 61 66 64 71 
80 79 71 69 85 94 98 103 108 
108 102 97 89 87 88 89 87 78 
66 77 91 94 99 104 109 114 115 
116 112 111 110 110 113 113 111 111 
112 114 113 112 110 108 104 95 91 
87 60 5 5 5 14 27 55 75 
83 86 88 94 96 94 87 82 80 
84 93 106 114 109 100 92 84 79 
88 98 110 114 112 106 97 90 84 
76 78 87 96 101 102 99 101 101 
101 98 98 97 95 92 87 84 76 
63 61 59 60 68 68 63 66 77 
75 65 73 91 95 98 105 109 112 
111 107 103 99 98 95 95 91 77 
67 82 91 90 92 97 108 116 116 
113 111 108 105 105 108 110 112 112 
114 113 109 107 106 105 98 92 90 
73 5 33 5 5 27 54 76 82 
85 88 94 100 98 94 86 80 78 
83 89 100 112 112 107 98 91 89 
96 106 114 115 109 99 86 82 81 
79 85 94 99 101 93 86 89 92 
97 98 98 94 90 87 84 78 73 
64 58 57 61 69 67 55 58 73 
72 67 81 92 93 97 103 108 112 
111 112 112 110 111 105 98 93 84 
61 63 77 79 80 84 96 112 117 
115 112 106 99 97 97 101 108 112 
112 112 109 102 101 97 94 91 90 
79 42 5 5 5 20 49 74 81 
84 88 95 102 105 102 93 86 79 
72 76 87 95 109 113 111 106 102 
101 105 111 114 113 105 91 79 72 
75 86 93 100 104 100 86 76 76 
82 90 93 93 91 88 84 81 75 
67 57 52 56 67 71 64 48 48 
63 67 67 80 88 88 92 98 103 
106 104 104 105 109 114 112 103 94 
85 64 60 73 82 84 88 99 111 
116 115 114 108 97 92 92 96 105 
112 113 108 101 92 89 89 90 90 
85 74 43 5 5 37 69 83 85 
87 93 102 107 105 104 96 88 83 
70 66 82 90 101 114 113 105 103 
108 111 113 113 111 101 88 77 66 
75 90 93 103 108 102 91 78 68 
68 79 87 88 86 84 80 78 73 
65 53 44 49 67 67 60 46 45 
56 62 65 76 82 81 85 93 96 
96 95 93 94 100 110 112 102 93 
79 69 76 84 90 95 98 105 112 
115 112 114 110 99 90 88 94 104 
111 112 105 93 85 82 82 80 76 
67 58 42 5 5 5 23 58 81 
85 88 93 103 109 110 108 106 99 
90 86 76 64 72 86 93 108 114 
105 97 106 111 113 113 111 101 88 
80 71 79 90 96 105 109 103 94 
85 75 64 66 74 80 80 77 74 
70 65 60 51 42 44 62 64 60 
54 56 60 58 60 65 71 73 72 
79 85 85 83 81 82 89 104 109 
98 87 73 74 90 97 102 105 108 
112 115 116 113 115 110 100 89 87 
92 103 110 110 99 89 80 70 64 
60 59 57 54 48 5 29 5 5 
34 74 85 86 89 97 104 105 109 
113 110 106 96 87 82 71 67 81 
89 101 113 113 105 109 113 112 112 
112 102 90 83 77 79 88 97 104 
108 106 98 89 85 79 70 63 65 
68 66 5 5 5 5 5 5 5 
5 5 5 69 5 5 5 5 5 
5 5 54 61 63 63 63 67 77 
82 84 82 85 92 105 108 96 85 
73 81 94 100 108 111 112 116 116 
117 116 116 111 100 88 87 95 104 
111 106 96 86 74 63 63 68 74 
79 78 71 49 5 19 5 5 5 
16 42 74 83 85 86 88 89 95 
103 112 113 111 101 90 86 78 67 
72 85 97 110 112 112 112 113 111 
112 112 103 92 86 80 75 86 94 
101 104 101 97 93 89 87 83 73 
66 61 5 5 5 5 5 64 62 
62 71 82 89 92 94 94 98 102 
109 107 96 85 77 83 94 99 104 
108 110 115 114 116 116 116 110 99 
92 94 100 108 112 102 91 84 73 
70 77 84 87 88 89 89 75 41 
5 16 5 5 5 14 21 45 68 
79 81 81 80 79 83 92 105 112 
108 102 92 86 82 71 71 84 97 
110 113 112 112 113 111 107 105 99 
90 87 78 73 82 90 100 104 97 
93 92 90 86 81 75 71 5 5 
5 5 55 63 77 85 90 93 96 
99 104 109 111 108 98 92 82 76 
86 92 91 96 102 108 112 116 116 
113 109 102 97 100 105 111 110 100 
89 81 75 78 84 89 91 92 93 
89 86 70 36 5 5 18 28 43 
59 71 74 77 74 76 81 87 100 
112 110 104 95 87 81 74 75 84 
97 111 113 111 110 105 101 95 92 
91 89 85 72 69 81 90 98 101 
93 87 84 85 84 80 75 72 5 
5 5 58 71 80 88 92 97 102 
106 106 105 104 99 95 83 66 73 
82 84 88 93 101 110 116 117 116 
111 105 101 104 109 112 110 101 89 
81 78 79 84 89 93 97 100 93 
86 86 69 5 34 5 5 5 18 
34 43 42 51 65 72 74 74 76 
81 87 97 106 107 103 94 86 80 
76 79 88 101 111 111 111 106 94 
86 84 85 84 80 75 70 72 80 
89 98 101 93 84 77 76 78 75 
72 70 5 5 52 62 73 84 89 
94 95 96 95 93 95 95 92 83 
70 78 86 88 91 96 105 112 116 
118 118 111 103 101 105 109 113 111 
101 89 79 74 79 84 89 97 106 
106 98 89 88 84 61 5 30 5 
5 5 17 32 54 56 50 60 72 
80 82 80 81 85 89 97 104 106 
101 93 85 80 77 81 91 105 111 
110 110 101 85 78 75 71 67 69 
75 80 85 88 94 100 99 93 86 
78 73 75 72 69 5 5 5 5 
54 65 77 86 89 88 88 85 83 
85 87 83 80 83 91 93 96 100 
107 112 115 115 115 117 112 104 101 
105 109 113 110 99 89 78 72 78 
87 91 99 110 107 101 94 89 86 
80 57 5 32 5 5 5 15 28 
56 66 62 62 74 81 86 86 86 
89 93 95 99 104 106 101 93 86 
83 78 83 93 106 112 109 111 103 
86 83 76 61 55 72 84 88 92 
96 101 105 100 93 87 79 71 69 
70 5 5 5 5 56 66 71 72 
73 74 76 74 74 74 70 74 86 
91 96 103 107 111 114 116 117 117 
117 112 106 99 102 107 111 110 101 
92 80 73 78 87 93 102 109 106 
101 95 91 88 84 78 62 5 5 
5 14 26 47 69 70 67 73 82 
83 85 89 93 95 98 102 105 108 
107 100 92 85 80 77 83 94 107 
111 112 115 108 92 90 87 73 63 
78 89 90 97 103 104 103 98 91 
86 81 70 64 64 5 5 50 57 
66 72 75 80 84 81 80 74 63 
69 88 93 96 104 111 112 115 117 
118 117 116 113 108 99 96 101 108 
111 103 96 86 78 82 87 95 107 
110 106 103 98 96 93 88 85 81 
5 59 5 5 5 15 24 45 66 
77 77 78 81 85 87 89 92 98 
102 106 108 110 108 105 99 91 85 
81 79 85 97 109 110 110 114 111 
102 94 89 84 75 79 87 90 99 
107 104 97 92 87 83 79 67 60 
63 5 5 47 57 70 82 86 86 
89 89 88 87 78 73 85 92 93 
96 103 110 114 114 116 116 117 115 
110 96 91 96 102 108 107 103 93 
86 86 92 100 108 110 111 106 102 
101 98 91 89 86 79 5 52 5 
5 5 16 23 46 65 75 80 81 
84 86 88 90 93 97 102 107 111 
112 114 111 107 100 90 84 80 80 
86 100 111 110 110 113 109 109 102 
91 86 78 76 84 87 96 106 101 
93 85 77 71 65 60 60 5 5 
5 5 53 66 81 88 88 90 92 
90 88 87 80 78 86 90 88 92 
97 105 111 116 116 116 118 113 98 
89 88 92 100 106 109 105 100 97 
101 108 113 115 114 108 105 105 103 
99 92 87 85 76 5 42 5 5 
5 14 20 43 68 80 83 85 85 
88 90 93 95 96 100 106 111 113 
114 114 112 108 101 92 86 79 81 
88 103 114 112 109 111 111 112 107 
93 88 82 75 77 84 91 103 101 
91 82 75 67 60 58 59 5 5 
49 61 75 85 87 90 94 95 92 
91 85 76 75 82 85 87 87 92 
102 113 117 119 118 114 101 88 84 
85 90 99 107 110 110 109 109 112 
113 114 110 105 102 102 103 100 94 
89 87 85 65 5 28 5 5 18 
37 64 78 84 86 89 90 92 95 
96 98 98 100 105 110 114 116 114 
112 105 99 90 84 80 81 90 106 
113 113 111 112 113 112 106 95 87 
84 76 69 79 87 96 103 96 87 
84 79 74 68 5 5 5 52 56 
71 81 84 86 91 96 94 88 86 
80 74 71 77 84 84 86 96 109 
116 117 118 115 105 92 84 81 84 
91 99 106 110 109 111 113 111 106 
101 94 93 94 97 97 95 91 87 
86 77 46 5 19 5 5 5 14 
27 57 76 83 87 88 92 94 96 
101 100 100 102 105 107 111 114 115 
113 110 105 97 89 85 83 82 92 
109 113 113 113 111 112 110 106 96 
87 86 78 61 68 84 90 101 101 
91 83 81 75 62 5 5 5 57 
63 72 74 80 87 94 94 89 87 
84 82 76 72 75 77 83 95 106 
116 116 117 117 110 94 85 79 77 
83 91 100 106 110 112 108 101 94 
88 83 84 87 89 90 91 89 87 
85 82 64 33 5 5 5 15 21 
43 71 81 86 88 90 93 95 99 
104 106 106 107 109 110 113 112 111 
110 105 100 94 88 85 84 86 98 
111 113 113 115 114 112 110 105 95 
88 87 82 67 62 79 88 98 101 
92 83 79 72 62 5 5 68 60 
62 65 75 84 93 95 89 86 85 
84 82 77 75 77 84 95 108 117 
116 114 117 114 100 88 82 77 80 
88 95 99 104 103 97 90 86 79 
74 75 79 83 86 89 88 87 86 
80 69 52 5 26 5 5 5 16 
16 34 59 73 79 86 86 88 89 
92 97 104 108 110 112 110 112 114 
111 108 106 99 94 88 83 82 84 
89 104 113 112 112 114 113 111 110 
100 91 86 85 84 73 63 77 87 
98 102 92 81 77 70 64 5 5 
5 64 58 61 76 84 91 93 88 
84 84 84 85 82 76 79 87 96 
109 115 114 114 116 115 106 93 86 
79 79 85 89 91 92 91 89 86 
79 69 66 69 73 77 80 82 83 
84 86 80 71 68 43 5 5 15 
24 44 60 66 77 82 83 84 87 
89 94 101 109 114 115 114 115 113 
109 105 100 94 87 82 80 81 85 
94 109 113 111 111 112 113 111 103 
91 87 84 82 81 71 71 83 87 
96 102 92 81 78 73 66 5 5 
64 58 66 83 88 91 90 86 80 
80 82 84 80 75 80 88 95 108 
115 116 115 115 115 110 97 88 82 
79 82 84 85 85 85 81 75 68 
67 71 75 76 78 79 80 83 85 
88 86 79 76 56 5 20 5 5 
5 16 17 34 51 56 65 76 79 
81 83 85 87 92 99 108 115 114 
114 115 111 108 102 95 89 84 80 
81 83 88 101 112 113 113 111 111 
113 108 93 86 84 81 80 78 72 
77 83 88 98 102 90 83 79 74 
67 5 5 61 59 73 86 89 93 
89 84 79 79 80 82 78 75 80 
88 92 103 115 118 117 116 114 110 
98 89 86 76 72 80 81 79 78 
72 68 69 75 81 82 83 84 84 
84 86 89 89 89 88 84 69 31 
5 5 5 15 14 26 51 65 66 
69 72 77 79 82 83 84 89 97 
107 115 116 116 114 112 107 98 90 
86 82 80 81 83 93 110 116 116 
116 113 112 113 102 88 83 79 81 
80 75 72 79 85 89 97 100 91 
84 78 73 68 5 5 5 58 77 
87 87 91 87 81 78 79 80 80 
75 75 83 87 89 98 112 117 116 
118 116 113 100 90 86 68 61 75 
79 76 76 75 77 80 84 88 93 
95 97 98 98 99 101 98 95 91 
88 80 44 5 16 5 5 16 24 
52 76 82 78 75 71 73 76 80 
83 84 88 95 104 113 116 116 115 
113 107 99 90 84 79 78 81 85 
96 113 115 115 116 115 114 111 97 
86 78 76 79 78 75 73 78 84 
87 96 99 92 84 80 72 69 5 
5 57 77 85 88 89 84 76 75 
80 84 83 75 77 85 85 88 96 
109 117 118 118 118 115 100 88 80 
66 69 82 84 82 83 85 87 90 
97 103 107 110 112 109 107 104 103 
98 93 88 87 78 54 26 5 5 
5 15 16 45 78 86 87 86 82 
72 66 68 76 82 86 87 90 98 
107 112 115 117 115 110 103 94 87 
81 77 78 83 95 112 114 116 117 
116 114 107 92 83 76 77 79 77 
77 74 76 81 83 93 97 92 85 
80 72 69 5 5 55 74 83 86 
87 83 74 71 79 86 84 75 80 
88 88 89 93 105 116 119 118 118 
114 98 86 80 76 83 88 89 92 
94 98 101 107 111 114 115 114 110 
104 98 94 91 89 87 85 80 69 
58 44 5 24 5 5 14 32 70 
87 88 89 87 84 77 65 57 64 
78 84 84 85 92 100 107 113 116 
117 114 111 103 93 86 81 78 82 
93 110 113 116 117 116 115 104 88 
81 77 80 79 78 78 74 74 81 
83 89 94 91 84 80 70 58 5 
5 54 72 83 87 89 87 80 77 
80 85 82 75 81 87 90 92 94 
104 115 115 116 117 114 101 87 83 
84 89 96 103 106 107 110 112 115 
114 115 111 104 98 91 87 86 82 
79 77 75 72 70 72 69 49 5 
5 5 13 20 56 83 87 89 92 
90 85 81 75 60 54 67 79 82 
84 86 91 100 108 115 118 116 114 
108 99 90 85 81 83 94 110 113 
115 113 113 113 102 86 80 77 80 
78 78 79 73 68 78 83 88 89 
86 82 79 66 53 5 5 55 72 
82 86 89 88 82 78 78 81 79 
75 83 88 91 94 98 106 113 115 
115 117 116 108 95 91 93 100 109 
114 112 112 113 115 115 115 111 100 
93 89 85 83 80 76 75 76 76 
80 85 87 84 74 5 46 5 5 
14 36 76 88 89 94 101 98 90 
84 83 78 70 68 71 75 81 86 
87 92 100 111 117 116 114 111 103 
94 86 83 84 97 112 115 115 114 
113 113 100 85 80 76 79 79 78 
78 69 63 73 81 84 84 84 79 
71 59 56 5 5 52 71 82 86 
90 87 83 80 77 75 73 69 78 
85 87 92 100 108 113 116 116 115 
116 115 109 107 110 115 116 117 116 
114 115 115 114 110 100 89 85 81 
78 77 75 76 79 84 87 89 91 
90 87 84 66 5 27 5 5 17 
53 84 88 89 98 106 109 100 90 
85 83 83 81 77 71 73 80 84 
88 94 103 113 114 114 112 105 93 
86 83 87 101 114 114 115 114 113 
112 101 85 80 75 79 80 79 78 
64 58 69 77 81 80 80 72 56 
53 59 5 5 53 72 83 87 93 
90 86 82 79 74 68 63 72 85 
86 89 97 107 114 116 116 116 116 
116 116 116 116 118 120 119 117 114 
113 114 110 99 88 85 82 74 72 
79 83 84 87 90 90 91 95 95 
89 86 80 48 5 5 5 14 21 
56 83 87 88 93 100 110 112 106 
97 90 88 85 84 78 76 78 80 
83 88 98 110 115 114 112 106 94 
88 87 92 106 115 114 115 114 113 
111 102 87 80 76 81 79 78 74 
60 58 69 74 74 71 66 52 45 
55 61 5 5 55 75 84 88 92 
90 86 83 81 78 71 64 67 83 
86 87 91 101 110 115 116 116 116 
117 118 116 116 118 118 118 117 116 
116 112 100 90 85 81 74 72 80 
86 88 89 91 96 99 101 102 100 
92 87 85 70 5 32 5 5 15 
32 58 77 83 86 88 92 99 109 
114 110 102 96 90 87 83 81 77 
78 79 84 94 108 115 116 114 108 
99 92 92 97 107 114 114 114 112 
111 111 104 90 82 76 76 74 71 
66 60 67 73 73 70 62 52 48 
54 62 59 5 5 56 72 81 86 
90 91 89 85 84 79 74 72 68 
76 83 84 87 93 101 112 115 115 
116 118 117 116 116 118 117 118 117 
116 113 103 90 85 83 78 77 83 
88 90 93 99 103 108 109 109 109 
104 93 89 86 81 44 5 5 21 
56 75 80 83 83 82 88 96 105 
112 114 112 107 100 93 86 83 79 
78 79 84 92 107 114 115 115 112 
105 99 100 104 107 113 116 114 111 
109 109 103 91 82 79 75 69 65 
66 69 75 77 76 72 67 58 60 
65 70 66 5 5 59 73 82 85 
87 87 88 85 84 81 76 73 68 
70 77 82 85 87 91 105 113 114 
115 117 117 117 117 117 118 117 116 
115 109 95 85 80 77 81 86 88 
90 96 104 110 113 114 115 110 105 
97 91 89 84 81 53 5 5 5 
16 36 75 88 86 87 87 86 87 
93 102 110 112 109 107 107 102 94 
89 84 82 80 82 92 109 115 114 
116 116 112 108 108 111 110 112 114 
112 111 109 107 101 91 83 80 76 
67 63 70 77 80 80 79 78 72 
63 66 71 75 69 5 55 5 5 
65 69 76 83 89 86 84 83 83 
80 73 71 70 72 78 82 84 85 
90 102 113 113 112 114 115 116 117 
117 117 117 116 116 106 92 83 79 
80 85 89 93 101 109 112 114 117 
115 113 106 98 90 87 88 84 77 
58 5 25 5 5 19 53 85 89 
90 92 92 93 93 96 104 110 110 
106 105 106 103 98 93 87 84 83 
86 99 115 117 115 116 116 117 115 
114 116 113 113 114 111 110 110 103 
95 88 84 82 79 71 67 75 81 
82 81 79 79 75 66 69 73 76 
71 57 5 5 70 64 57 66 76 
75 75 76 75 71 66 66 72 77 
81 84 85 85 88 97 109 112 109 
110 114 116 118 119 118 117 117 117 
110 97 87 83 86 90 97 106 114 
118 117 117 117 116 111 102 92 85 
83 86 85 77 66 35 5 5 24 
68 89 89 94 98 98 98 97 102 
104 108 110 107 105 103 100 97 95 
91 89 90 96 110 117 116 116 114 
115 117 117 116 118 115 112 111 109 
109 108 99 89 85 82 81 80 76 
76 79 82 82 81 80 80 75 68 