# vtk DataFile Version 4.0
vtk output
ASCII
DATASET POLYDATA
POINTS 19558 float
16.5388 -104.082 -3.2005 15.84 -104.765 -3.16626 15.84 -104.082 -3.2005 
14.85 -104.795 -3.16476 14.85 -104.082 -3.2005 14.1205 -104.082 -3.2005 
21.45 -103.113 -3.249 20.79 -103.759 -3.21667 20.79 -103.113 -3.249 
19.8 -103.759 -3.21667 19.8 -103.113 -3.249 18.81 -103.759 -3.21667 
18.81 -103.113 -3.249 17.82 -103.779 -3.21566 17.82 -103.113 -3.249 
16.83 -103.797 -3.21476 16.83 -103.113 -3.249 15.84 -103.113 -3.249 
14.85 -103.113 -3.249 13.86 -103.895 -3.20983 13.86 -103.113 -3.249 
12.87 -103.92 -3.20858 12.87 -103.113 -3.249 11.88 -103.951 -3.20705 
11.88 -103.113 -3.249 10.89 -103.951 -3.20705 10.89 -103.113 -3.249 
9.9 -103.939 -3.20763 9.9 -103.113 -3.249 8.91 -103.925 -3.20832 
8.91 -103.113 -3.249 7.92 -103.902 -3.20948 7.92 -103.113 -3.249 
6.93 -103.871 -3.21104 6.93 -103.113 -3.249 5.94 -103.871 -3.21104 
5.94 -103.113 -3.249 5.16522 -103.113 -3.249 22.4164 -102.144 -3.2975 
21.78 -102.767 -3.26632 21.78 -102.144 -3.2975 20.79 -102.144 -3.2975 
19.8 -102.144 -3.2975 18.81 -102.144 -3.2975 17.82 -102.144 -3.2975 
16.83 -102.144 -3.2975 15.84 -102.144 -3.2975 14.85 -102.144 -3.2975 
13.86 -102.144 -3.2975 12.87 -102.144 -3.2975 11.88 -102.144 -3.2975 
10.89 -102.144 -3.2975 9.9 -102.144 -3.2975 8.91 -102.144 -3.2975 
7.92 -102.144 -3.2975 6.93 -102.144 -3.2975 5.94 -102.144 -3.2975 
4.95 -102.911 -3.2591 4.95 -102.144 -3.2975 3.96 -102.893 -3.26002 
3.96 -102.144 -3.2975 3.195 -102.144 -3.2975 -16.065 -102.144 -3.2975 
-16.83 -102.893 -3.26002 -16.83 -102.144 -3.2975 -17.82 -102.911 -3.2591 
-17.82 -102.144 -3.2975 -18.81 -102.902 -3.25954 -18.81 -102.144 -3.2975 
-19.8 -102.871 -3.26113 -19.8 -102.144 -3.2975 -20.79 -102.81 -3.26416 
-20.79 -102.144 -3.2975 -21.4706 -102.144 -3.2975 24.4406 -101.175 -3.346 
23.76 -101.841 -3.31266 23.76 -101.175 -3.346 22.77 -101.889 -3.31026 
22.77 -101.175 -3.346 21.78 -101.175 -3.346 20.79 -101.175 -3.346 
19.8 -101.175 -3.346 18.81 -101.175 -3.346 17.82 -101.175 -3.346 
16.83 -101.175 -3.346 15.84 -101.175 -3.346 14.85 -101.175 -3.346 
13.86 -101.175 -3.346 12.87 -101.175 -3.346 11.88 -101.175 -3.346 
10.89 -101.175 -3.346 9.9 -101.175 -3.346 8.91 -101.175 -3.346 
7.92 -101.175 -3.346 6.93 -101.175 -3.346 5.94 -101.175 -3.346 
4.95 -101.175 -3.346 3.96 -101.175 -3.346 3.12968 -101.175 -3.346 
-14.0433 -101.175 -3.346 -14.85 -101.965 -3.30648 -14.85 -101.175 -3.346 
-15.84 -102.029 -3.30327 -15.84 -101.175 -3.346 -16.83 -101.175 -3.346 
-17.82 -101.175 -3.346 -18.81 -101.175 -3.346 -19.8 -101.175 -3.346 
-20.79 -101.175 -3.346 -21.78 -101.971 -3.30616 -21.78 -101.175 -3.346 
-22.77 -101.902 -3.30962 -22.77 -101.175 -3.346 -23.5125 -101.175 -3.346 
25.4795 -100.206 -3.3945 24.75 -100.92 -3.35876 24.75 -100.206 -3.3945 
23.76 -100.206 -3.3945 22.77 -100.206 -3.3945 21.78 -100.206 -3.3945 
20.79 -100.206 -3.3945 19.8 -100.206 -3.3945 18.81 -100.206 -3.3945 
17.82 -100.206 -3.3945 16.83 -100.206 -3.3945 15.84 -100.206 -3.3945 
14.85 -100.206 -3.3945 13.86 -100.206 -3.3945 12.87 -100.206 -3.3945 
11.88 -100.206 -3.3945 10.89 -100.206 -3.3945 9.9 -100.206 -3.3945 
8.91 -100.206 -3.3945 7.92 -100.206 -3.3945 6.93 -100.206 -3.3945 
5.94 -100.206 -3.3945 4.95 -100.206 -3.3945 3.96 -100.206 -3.3945 
3.0634 -100.206 -3.3945 -12.0704 -100.206 -3.3945 -12.87 -100.989 -3.35533 
-12.87 -100.206 -3.3945 -13.86 -101.044 -3.35255 -13.86 -100.206 -3.3945 
-14.85 -100.206 -3.3945 -15.84 -100.206 -3.3945 -16.83 -100.206 -3.3945 
-17.82 -100.206 -3.3945 -18.81 -100.206 -3.3945 -19.8 -100.206 -3.3945 
-20.79 -100.206 -3.3945 -21.78 -100.206 -3.3945 -22.77 -100.206 -3.3945 
-23.76 -101.051 -3.35222 -23.76 -100.206 -3.3945 -24.75 -100.996 -3.35498 
-24.75 -100.206 -3.3945 -25.74 -100.906 -3.35947 -25.74 -100.206 -3.3945 
-26.455 -100.206 -3.3945 27.445 -99.2376 -3.443 26.73 -99.9373 -3.40797 
26.73 -99.2376 -3.443 25.74 -100.005 -3.4046 25.74 -99.2376 -3.443 
24.75 -99.2376 -3.443 23.76 -99.2376 -3.443 22.77 -99.2376 -3.443 
21.78 -99.2376 -3.443 20.79 -99.2376 -3.443 19.8 -99.2376 -3.443 
18.81 -99.2376 -3.443 17.82 -99.2376 -3.443 16.83 -99.2376 -3.443 
15.84 -99.2376 -3.443 14.85 -99.2376 -3.443 13.86 -99.2376 -3.443 
12.87 -99.2376 -3.443 11.88 -99.2376 -3.443 10.89 -99.2376 -3.443 
9.9 -99.2376 -3.443 8.91 -99.2376 -3.443 7.92 -99.2376 -3.443 
6.93 -99.2376 -3.443 5.94 -99.2376 -3.443 4.95 -99.2376 -3.443 
3.96 -99.2376 -3.443 2.97 -100.126 -3.39854 2.97 -99.2376 -3.443 
1.98 -100.108 -3.39945 1.98 -99.2376 -3.443 1.09102 -99.2376 -3.443 
-11.9951 -99.2376 -3.443 -12.87 -99.2376 -3.443 -13.86 -99.2376 -3.443 
-14.85 -99.2376 -3.443 -15.84 -99.2376 -3.443 -16.83 -99.2376 -3.443 
-17.82 -99.2376 -3.443 -18.81 -99.2376 -3.443 -19.8 -99.2376 -3.443 
-20.79 -99.2376 -3.443 -21.78 -99.2376 -3.443 -22.77 -99.2376 -3.443 
-23.76 -99.2376 -3.443 -24.75 -99.2376 -3.443 -25.74 -99.2376 -3.443 
-26.73 -100.039 -3.40286 -26.73 -99.2376 -3.443 -27.72 -99.9215 -3.40876 
-27.72 -99.2376 -3.443 -28.4188 -99.2376 -3.443 29.4395 -98.2688 -3.4915 
28.71 -98.9827 -3.45576 28.71 -98.2688 -3.4915 27.72 -99.027 -3.45354 
27.72 -98.2688 -3.4915 26.73 -98.2688 -3.4915 25.74 -98.2688 -3.4915 
24.75 -98.2688 -3.4915 23.76 -98.2688 -3.4915 22.77 -98.2688 -3.4915 
21.78 -98.2688 -3.4915 20.79 -98.2688 -3.4915 19.8 -98.2688 -3.4915 
18.81 -98.2688 -3.4915 17.82 -98.2688 -3.4915 16.83 -98.2688 -3.4915 
15.84 -98.2688 -3.4915 14.85 -98.2688 -3.4915 13.86 -98.2688 -3.4915 
12.87 -98.2688 -3.4915 11.88 -98.2688 -3.4915 10.89 -98.2688 -3.4915 
9.9 -98.2688 -3.4915 8.91 -98.2688 -3.4915 7.92 -98.2688 -3.4915 
6.93 -98.2688 -3.4915 5.94 -98.2688 -3.4915 4.95 -98.2688 -3.4915 
3.96 -98.2688 -3.4915 2.97 -98.2688 -3.4915 1.98 -98.2688 -3.4915 
0.99 -99.1367 -3.44805 0.99 -98.2688 -3.4915 0.103125 -98.2688 -3.4915 
-11.9573 -98.2688 -3.4915 -12.87 -98.2688 -3.4915 -13.86 -98.2688 -3.4915 
-14.85 -98.2688 -3.4915 -15.84 -98.2688 -3.4915 -16.83 -98.2688 -3.4915 
-17.82 -98.2688 -3.4915 -18.81 -98.2688 -3.4915 -19.8 -98.2688 -3.4915 
-20.79 -98.2688 -3.4915 -21.78 -98.2688 -3.4915 -22.77 -98.2688 -3.4915 
-23.76 -98.2688 -3.4915 -24.75 -98.2688 -3.4915 -25.74 -98.2688 -3.4915 
-26.73 -98.2688 -3.4915 -27.72 -98.2688 -3.4915 -28.71 -99.0358 -3.4531 
-28.71 -98.2688 -3.4915 -29.7 -98.9527 -3.45726 -29.7 -98.2688 -3.4915 
-30.69 -98.9147 -3.45917 -30.69 -98.2688 -3.4915 -31.35 -98.2688 -3.4915 
30.415 -97.3 -3.54 29.7 -97.9997 -3.50497 29.7 -97.3 -3.54 
28.71 -97.3 -3.54 27.72 -97.3 -3.54 26.73 -97.3 -3.54 
25.74 -97.3 -3.54 24.75 -97.3 -3.54 23.76 -97.3 -3.54 
22.77 -97.3 -3.54 21.78 -97.3 -3.54 20.79 -97.3 -3.54 
19.8 -97.3 -3.54 18.81 -97.3 -3.54 17.82 -97.3 -3.54 
16.83 -97.3 -3.54 15.84 -97.3 -3.54 14.85 -97.3 -3.54 
13.86 -97.3 -3.54 12.87 -97.3 -3.54 11.88 -97.3 -3.54 
10.89 -97.3 -3.54 9.9 -97.3 -3.54 8.91 -97.3 -3.54 
7.92 -97.3 -3.54 6.93 -97.3 -3.54 5.94 -97.3 -3.54 
4.95 -97.3 -3.54 3.96 -97.3 -3.54 2.97 -97.3 -3.54 
1.98 -97.3 -3.54 0.99 -97.3 -3.54 0 -98.1791 -3.49599 
0 -97.3 -3.54 -0.898333 -97.3 -3.54 -2.07167 -97.3 -3.54 
-2.97 -98.1791 -3.49599 -2.97 -97.3 -3.54 -3.86833 -97.3 -3.54 
-11.9427 -97.3 -3.54 -12.87 -97.3 -3.54 -13.86 -97.3 -3.54 
-14.85 -97.3 -3.54 -15.84 -97.3 -3.54 -16.83 -97.3 -3.54 
-17.82 -97.3 -3.54 -18.81 -97.3 -3.54 -19.8 -97.3 -3.54 
-20.79 -97.3 -3.54 -21.78 -97.3 -3.54 -22.77 -97.3 -3.54 
-23.76 -97.3 -3.54 -24.75 -97.3 -3.54 -25.74 -97.3 -3.54 
-26.73 -97.3 -3.54 -27.72 -97.3 -3.54 -28.71 -97.3 -3.54 
-29.7 -97.3 -3.54 -30.69 -97.3 -3.54 -31.68 -97.9459 -3.50767 
-31.68 -97.3 -3.54 -32.67 -97.9459 -3.50767 -32.67 -97.3 -3.54 
-33.33 -97.3 -3.54 31.4195 -96.3312 -3.5885 30.69 -97.0451 -3.55276 
30.69 -96.3312 -3.5885 29.7 -96.3312 -3.5885 28.71 -96.3312 -3.5885 
27.72 -96.3312 -3.5885 26.73 -96.3312 -3.5885 25.74 -96.3312 -3.5885 
24.75 -96.3312 -3.5885 23.76 -96.3312 -3.5885 22.77 -96.3312 -3.5885 
21.78 -96.3312 -3.5885 20.79 -96.3312 -3.5885 19.8 -96.3312 -3.5885 
18.81 -96.3312 -3.5885 17.82 -96.3312 -3.5885 16.83 -96.3312 -3.5885 
15.84 -96.3312 -3.5885 14.85 -96.3312 -3.5885 13.86 -96.3312 -3.5885 
12.87 -96.3312 -3.5885 11.88 -96.3312 -3.5885 10.89 -96.3312 -3.5885 
9.9 -96.3312 -3.5885 8.91 -96.3312 -3.5885 7.92 -96.3312 -3.5885 
6.93 -96.3312 -3.5885 5.94 -96.3312 -3.5885 4.95 -96.3312 -3.5885 
3.96 -96.3312 -3.5885 2.97 -96.3312 -3.5885 1.98 -96.3312 -3.5885 
0.99 -96.3312 -3.5885 0 -96.3312 -3.5885 -0.99 -97.2327 -3.54337 
-0.99 -96.3312 -3.5885 -1.98 -97.2327 -3.54337 -1.98 -96.3312 -3.5885 
-2.97 -96.3312 -3.5885 -3.89028 -96.3312 -3.5885 -10.9639 -96.3312 -3.5885 
-11.88 -97.2277 -3.54362 -11.88 -96.3312 -3.5885 -12.87 -96.3312 -3.5885 
-13.86 -96.3312 -3.5885 -14.85 -96.3312 -3.5885 -15.84 -96.3312 -3.5885 
-16.83 -96.3312 -3.5885 -17.82 -96.3312 -3.5885 -18.81 -96.3312 -3.5885 
-19.8 -96.3312 -3.5885 -20.79 -96.3312 -3.5885 -21.78 -96.3312 -3.5885 
-22.77 -96.3312 -3.5885 -23.76 -96.3312 -3.5885 -24.75 -96.3312 -3.5885 
-25.74 -96.3312 -3.5885 -26.73 -96.3312 -3.5885 -27.72 -96.3312 -3.5885 
-28.71 -96.3312 -3.5885 -29.7 -96.3312 -3.5885 -30.69 -96.3312 -3.5885 
-31.68 -96.3312 -3.5885 -32.67 -96.3312 -3.5885 -33.66 -96.9771 -3.55617 
-33.66 -96.3312 -3.5885 -34.32 -96.3312 -3.5885 32.395 -95.3624 -3.637 
31.68 -96.0621 -3.60197 31.68 -95.3624 -3.637 30.69 -95.3624 -3.637 
29.7 -95.3624 -3.637 28.71 -95.3624 -3.637 27.72 -95.3624 -3.637 
26.73 -95.3624 -3.637 25.74 -95.3624 -3.637 24.75 -95.3624 -3.637 
23.76 -95.3624 -3.637 22.77 -95.3624 -3.637 21.78 -95.3624 -3.637 
20.79 -95.3624 -3.637 19.8 -95.3624 -3.637 18.81 -95.3624 -3.637 
17.82 -95.3624 -3.637 16.83 -95.3624 -3.637 15.84 -95.3624 -3.637 
14.85 -95.3624 -3.637 13.86 -95.3624 -3.637 12.87 -95.3624 -3.637 
11.88 -95.3624 -3.637 10.89 -95.3624 -3.637 9.9 -95.3624 -3.637 
8.91 -95.3624 -3.637 7.92 -95.3624 -3.637 6.93 -95.3624 -3.637 
5.94 -95.3624 -3.637 4.95 -95.3624 -3.637 3.96 -95.3624 -3.637 
2.97 -95.3624 -3.637 1.98 -95.3624 -3.637 0.99 -95.3624 -3.637 
0 -95.3624 -3.637 -0.99 -95.3624 -3.637 -1.98 -95.3624 -3.637 
[...]
POINT_DATA 19558
SCALARS scalars float
LOOKUP_TABLE default
5 5 17 5 19 5 5 5 15 
5 15 5 15 5 16 5 17 20 
25 5 26 5 30 5 37 5 37 
5 34 5 31 5 27 5 23 5 
23 5 5 5 14 16 22 28 37 
42 46 50 52 52 57 60 56 50 
47 41 31 5 24 5 22 5 5 
5 22 5 24 5 23 5 20 5 
16 5 5 5 16 5 19 27 40 
52 61 67 70 72 71 72 70 72 
79 79 73 65 63 58 45 31 5 
5 5 27 5 42 57 67 67 58 
41 5 28 5 20 5 5 5 19 
29 44 59 73 79 80 80 82 84 
82 81 81 82 88 95 90 79 73 
70 62 53 5 5 5 26 5 37 
65 86 94 97 98 94 79 61 48 
5 39 5 27 5 18 5 5 5 
18 5 24 38 60 76 83 87 91 
94 91 88 86 85 83 82 83 86 
96 99 92 84 81 72 64 5 60 
5 49 5 5 43 69 93 101 100 
102 102 101 90 79 76 77 69 49 
5 29 5 17 5 5 5 19 5 
23 39 55 69 81 90 92 95 96 
98 96 91 84 83 84 83 82 82 
94 107 105 94 85 77 66 61 61 
5 48 5 5 64 88 98 101 105 
107 103 98 90 90 92 96 95 88 
69 43 5 24 5 17 5 15 5 
5 5 18 32 55 76 86 93 96 
98 98 96 96 97 98 93 85 84 
88 88 87 89 98 109 115 108 95 
86 71 53 55 60 5 54 5 5 
5 54 5 5 79 97 100 101 108 
107 99 93 90 95 100 105 104 100 
92 72 50 37 25 5 15 5 15 
5 5 5 19 35 62 84 92 98 
100 100 97 93 91 93 97 99 96 
90 87 90 93 93 98 105 111 118 
119 108 98 85 56 49 64 72 5 
72 5 72 71 5 5 5 67 89 
99 101 104 109 110 102 97 100 103 
107 110 109 101 95 79 62 58 54 
37 21 5 15 5 5 5 18 36 
64 86 95 101 104 102 98 93 88 
87 90 96 100 100 94 90 93 96 
98 103 109 112 111 114 112 104 89 
56 44 58 73 79 77 72 5 5 
72 91 100 106 110 113 115 111 110 
110 111 109 111 111 103 94 86 78 
73 71 64 50 36 5 22 5 18 
5 5 5 20 5 5 5 15 5 
18 34 61 84 94 100 107 107 103 
98 90 85 86 89 96 103 105 103 
98 99 102 106 108 110 110 104 101 
99 94 84 61 50 55 68 77 78 
71 5 5 74 92 101 105 108 109 
108 105 106 108 113 112 113 113 110 
102 96 91 88 85 80 79 79 63 
40 5 22 5 5 5 5 15 23 
35 55 71 87 96 99 107 111 107 
102 94 88 89 92 98 105 106 107 
106 103 102 106 107 108 106 100 90 
80 71 71 74 72 68 68 75 78 
72 5 5 5 61 74 90 96 99 
102 97 93 90 90 92 98 103 110 
113 112 110 105 101 100 100 99 99 
99 94 82 56 5 29 5 16 5 
5 5 19 31 48 57 65 74 83 
91 97 106 113 111 105 101 95 96 
101 105 108 109 107 105 98 95 100 
104 107 107 100 89 79 76 82 90 
91 84 70 63 66 69 5 5 5 
59 64 78 82 84 90 94 86 79 
76 74 74 82 95 107 113 113 113 
113 112 109 107 106 106 104 101 97 
86 65 32 5 17 5 16 5 5 
5 15 5 23 41 53 59 62 68 
72 76 86 95 104 113 113 111 109 
105 106 109 110 110 109 107 100 87 
83 92 99 107 109 102 95 92 90 
94 93 91 91 82 64 52 60 5 
5 63 72 79 71 67 68 69 68 
74 83 81 81 89 101 110 113 112 
111 110 108 107 106 105 106 104 103 
99 91 81 61 33 17 5 15 5 
5 5 20 5 16 5 5 28 47 
56 56 64 69 68 67 70 84 95 
103 111 116 115 112 111 112 113 114 
113 109 105 97 80 69 83 94 100 
105 107 104 100 97 97 96 92 91 
88 75 51 50 5 5 5 64 67 
78 79 71 65 60 54 70 92 99 
99 101 102 106 114 114 108 101 97 
95 97 96 95 96 90 90 91 86 
79 71 59 37 20 5 5 5 20 
14 17 5 31 47 54 60 66 72 
72 71 70 73 84 96 105 111 114 
114 110 106 105 109 109 110 109 105 
96 81 63 67 82 91 97 105 106 
101 99 97 94 92 91 86 76 62 
57 5 5 5 64 5 65 67 73 
87 91 86 75 63 56 79 98 102 
107 110 110 113 116 111 104 88 76 
78 84 87 88 87 82 80 83 84 
82 76 72 64 46 5 24 5 5 
5 18 34 49 49 59 75 79 78 
78 79 79 83 92 102 109 112 114 
111 105 97 93 95 100 107 110 108 
99 89 74 61 66 78 89 97 103 
101 95 93 89 88 87 83 73 63 
60 5 5 67 71 76 85 91 96 
91 80 65 60 76 89 98 105 108 
108 114 112 106 97 75 66 77 86 
88 88 87 85 86 88 91 91 90 
87 83 76 51 5 23 5 5 35 
47 45 56 81 89 89 92 93 92 
92 94 100 104 110 113 114 111 102 
91 83 81 87 98 107 111 106 97 
90 78 64 63 77 92 100 99 93 
90 83 77 72 70 67 60 58 5 
5 74 77 85 94 98 100 91 82 
79 83 85 79 79 86 95 99 102 
104 102 88 73 78 90 94 96 97 
96 97 97 98 99 96 94 93 91 
90 73 43 5 5 5 13 5 17 
5 33 48 43 42 65 90 93 99 
103 103 104 105 107 108 109 112 113 
113 111 105 94 85 78 78 88 98 
108 110 104 95 92 78 60 67 86 
96 99 94 88 77 65 57 58 63 
59 59 5 5 5 72 75 82 92 
97 102 99 88 80 86 96 96 89 
79 74 79 88 92 94 88 73 74 
86 95 97 104 107 105 106 106 106 
104 105 101 99 96 93 82 59 5 
29 5 5 5 12 16 32 45 47 
48 49 64 89 96 101 108 110 110 
112 113 111 110 111 112 112 112 109 
100 91 84 75 79 91 101 106 108 
101 93 86 68 65 84 94 97 93 
87 82 67 56 56 62 61 58 5 
5 5 66 75 83 91 97 102 102 
94 85 81 92 102 104 100 93 85 
80 81 77 69 66 65 80 93 97 
105 113 115 113 111 109 107 105 105 
104 99 98 91 79 67 45 5 24 
5 5 5 5 46 47 55 63 61 
61 77 89 97 106 112 114 114 113 
111 109 108 108 109 111 112 106 95 
89 78 72 82 93 98 106 107 98 
89 77 70 85 94 94 94 90 88 
81 70 63 62 61 58 5 59 69 
81 92 97 100 101 94 88 86 86 
96 107 110 107 103 99 95 90 78 
60 58 70 88 96 101 112 115 116 
114 107 103 99 98 98 97 94 92 
84 72 65 58 39 5 19 5 5 
5 49 54 59 74 82 83 75 70 
82 93 98 105 111 114 114 112 110 
108 107 109 111 113 108 96 89 77 
56 62 82 90 99 105 101 92 81 
73 84 93 93 94 91 89 82 73 
63 60 60 60 64 78 90 95 99 
98 92 87 90 94 99 103 109 113 
112 110 104 101 96 87 74 73 82 
93 99 106 113 114 115 111 103 96 
91 90 90 90 85 81 78 74 72 
73 62 39 5 16 5 5 5 42 
62 61 74 87 90 91 86 78 75 
82 90 95 101 109 113 113 112 111 
113 113 113 112 106 93 87 74 60 
64 74 81 89 99 103 97 88 79 
80 90 92 93 91 88 78 66 57 
55 61 65 71 85 92 95 97 91 
86 88 95 101 105 107 110 114 113 
110 105 101 93 84 80 81 87 94 
101 111 115 114 114 112 104 92 86 
85 85 84 78 75 75 81 86 90 
84 67 32 5 5 5 29 53 59 
65 81 89 93 95 92 89 80 74 
82 90 93 98 108 113 113 114 113 
112 114 109 99 90 83 74 78 86 
82 78 79 88 98 98 93 86 80 
83 89 90 89 82 73 60 50 54 
60 63 73 88 94 94 91 88 90 
95 103 107 108 105 105 106 105 104 
102 95 85 81 84 88 92 98 105 
113 116 114 113 114 112 101 92 87 
84 82 77 78 82 89 94 93 90 
84 55 5 22 5 5 5 15 5 
25 45 60 63 72 82 87 94 101 
98 91 87 78 70 75 86 91 97 
108 115 115 112 114 113 103 90 85 
78 80 89 91 89 84 78 81 89 
94 95 92 84 79 81 83 85 79 
68 53 50 58 60 59 73 88 92 
87 83 86 93 101 106 105 98 91 
91 95 97 101 98 88 78 81 88 
92 97 104 110 115 116 114 114 117 
117 111 100 92 88 84 84 84 89 
96 100 98 92 88 74 40 5 5 
5 18 30 53 71 78 78 78 81 
86 93 105 107 94 89 86 69 54 
69 87 92 103 114 115 114 114 107 
96 88 81 76 84 93 96 95 91 
82 77 78 82 90 92 89 82 73 
69 75 72 60 52 58 63 57 56 
72 84 83 76 78 89 97 103 105 
100 91 83 78 83 90 92 90 79 
67 79 90 95 104 111 114 118 115 
113 113 114 116 115 109 103 99 93 
94 96 98 103 107 103 93 90 84 
61 5 25 5 5 36 59 78 86 
86 83 81 83 86 91 102 110 102 
91 88 80 60 61 83 91 101 112 
115 114 110 99 90 80 73 76 86 
95 104 106 98 90 82 78 78 85 
89 88 86 77 64 66 68 60 59 
66 68 61 60 71 78 74 67 79 
94 96 99 102 96 90 86 80 83 
86 86 81 66 57 79 92 97 106 
113 115 117 114 112 107 107 109 111 
114 113 110 106 106 104 107 111 111 
106 97 90 87 75 38 5 5 5 
20 5 43 67 80 85 88 89 84 
80 82 83 88 100 111 110 99 90 
85 76 72 85 94 104 112 115 112 
104 94 84 74 73 82 91 98 104 
107 104 99 92 85 84 86 88 87 
85 79 67 62 65 62 64 65 66 
63 60 64 71 71 68 80 90 91 
97 103 100 97 96 94 93 90 88 
84 67 51 69 86 91 97 103 109 
114 114 110 103 102 102 104 109 112 
110 110 113 113 114 113 110 107 101 
93 89 83 53 5 5 5 21 45 
70 81 85 88 90 91 87 79 77 
81 88 96 110 114 107 97 89 84 
83 90 98 109 114 114 106 95 87 
78 72 80 89 96 102 100 98 100 
100 98 94 92 89 86 84 79 72 
67 58 58 59 67 68 64 59 57 
60 63 66 71 80 82 86 95 100 
105 106 106 104 101 99 96 93 85 
62 54 75 85 87 91 99 111 113 
108 102 98 96 96 99 101 103 107 
111 112 114 111 106 105 103 95 90 
87 65 5 5 5 23 45 71 80 
84 88 91 94 91 88 80 73 78 
88 92 104 112 110 104 98 94 94 
99 108 114 114 109 97 86 79 75 
79 89 95 100 97 88 84 89 93 
93 93 91 87 82 76 69 63 61 
53 50 56 70 70 60 45 49 59 
59 63 75 83 82 85 93 99 103 
108 112 112 111 110 104 97 91 74 
52 64 78 81 83 88 104 114 111 
106 99 93 90 91 90 94 100 105 
109 111 111 106 103 99 93 89 87 
70 5 30 5 5 5 19 41 67 
81 84 87 92 98 100 92 87 81 
71 69 83 87 96 109 112 109 107 
104 105 109 113 115 113 104 89 79 
69 75 90 95 99 100 93 80 73 
76 85 87 88 87 83 81 74 66 
59 52 46 40 49 67 66 54 38 
41 53 54 57 72 79 77 81 90 
96 100 104 104 106 111 112 110 101 
91 76 59 68 81 84 86 91 105 
115 112 113 107 97 90 86 83 86 
94 103 109 110 106 97 93 90 91 
89 84 65 30 5 5 31 61 79 
84 87 91 98 106 105 97 89 84 
73 63 73 87 91 102 114 111 104 
108 112 111 112 113 110 100 86 74 
65 79 92 95 102 102 94 86 74 
63 69 79 84 83 79 78 78 75 
70 63 50 36 38 54 53 48 43 
45 51 55 57 61 70 74 79 89 
94 96 98 96 96 100 108 109 101 
93 76 68 83 88 91 95 102 109 
114 113 113 112 104 92 86 80 82 
92 102 109 110 100 88 86 84 83 
78 68 53 32 5 5 5 21 52 
76 83 85 88 99 107 110 108 103 
92 87 82 67 61 79 87 95 110 
113 104 104 109 112 113 111 109 100 
87 77 70 82 90 95 102 104 98 
89 82 71 62 66 75 79 77 5 
5 5 5 5 5 5 5 5 5 
5 52 5 5 5 5 67 5 5 
5 5 5 5 59 66 72 81 85 
84 84 85 84 90 106 110 100 93 
79 79 92 94 100 104 109 112 115 
115 114 114 107 94 86 82 85 93 
104 110 107 93 85 81 76 69 58 
49 46 40 5 21 5 5 30 65 
81 84 86 91 98 103 110 111 107 
97 89 85 75 60 66 84 92 104 
113 112 110 111 113 112 111 110 100 
87 81 76 80 88 94 99 101 99 
90 84 83 75 65 67 72 5 5 
5 5 5 5 61 63 67 70 73 
76 80 82 89 104 110 100 90 79 
84 93 96 106 109 110 113 114 116 
117 116 108 94 83 81 86 96 106 
111 106 93 84 77 66 60 61 65 
66 60 37 5 5 5 15 34 64 
78 81 83 84 86 92 103 112 110 
102 93 86 82 69 62 76 87 101 
111 113 112 112 113 113 111 110 101 
89 86 79 77 86 93 98 98 94 
92 87 84 81 75 71 69 5 5 
52 61 70 78 84 89 91 93 96 
106 108 99 90 81 82 92 97 102 
103 104 108 111 115 116 115 105 91 
83 84 90 99 108 109 100 91 84 
76 69 71 78 85 86 82 65 5 
32 5 5 5 14 23 39 57 71 
76 80 79 80 85 94 109 110 103 
95 88 82 73 67 75 85 99 112 
112 112 113 113 111 106 103 98 90 
86 77 76 85 92 98 97 89 86 
84 81 79 73 71 74 5 5 5 
60 70 79 86 90 93 97 101 107 
106 97 93 82 72 82 90 89 91 
93 97 105 113 116 115 105 89 84 
89 96 103 109 109 98 89 83 78 
77 83 88 90 90 87 84 61 5 
27 5 5 20 33 41 48 64 74 
78 79 79 83 92 105 108 102 94 
87 81 76 73 78 88 101 111 111 
112 112 106 100 94 92 91 88 83 
73 77 87 93 100 94 83 77 76 
77 71 70 5 5 5 5 54 62 
75 84 89 94 99 100 100 99 95 
94 81 66 71 79 81 82 84 89 
102 112 116 115 104 91 87 91 97 
104 110 109 99 89 84 78 76 82 
88 90 93 89 87 82 58 5 5 
5 17 35 49 46 51 67 76 77 
79 83 88 95 104 107 101 93 85 
80 77 76 83 93 106 113 110 112 
109 95 85 83 83 84 80 74 71 
79 86 94 99 91 80 71 68 68 
63 67 5 5 5 58 72 81 88 
94 96 95 93 94 93 89 81 74 
79 84 86 86 88 94 104 114 117 
115 102 89 88 91 97 105 109 107 
96 87 80 76 77 84 89 93 98 
95 88 88 79 5 54 5 27 5 
5 30 58 64 57 66 78 83 85 
88 90 93 99 104 105 98 90 85 
80 76 79 86 95 108 113 111 112 
104 88 78 73 68 67 69 73 80 
85 89 95 96 89 82 75 67 64 
66 5 5 5 56 66 75 82 87 
88 87 84 85 85 78 76 85 94 
94 96 97 99 105 109 114 115 113 
103 91 86 89 97 104 108 107 96 
87 78 74 77 84 91 99 106 102 
93 90 86 76 53 5 5 5 16 
5 26 53 68 68 66 77 84 86 
88 92 96 100 104 106 105 96 90 
84 82 81 83 88 98 109 112 110 
111 105 90 83 74 58 52 68 83 
87 91 94 98 96 89 86 81 72 
64 68 5 5 55 62 69 71 73 
74 74 72 71 68 67 76 88 96 
101 105 107 111 114 114 114 114 112 
103 91 85 88 95 103 109 108 98 
87 78 72 77 85 92 100 109 107 
99 92 89 85 77 5 58 5 5 
5 14 26 45 66 72 72 74 83 
87 90 92 98 104 107 108 108 104 
95 88 84 81 82 83 89 101 111 
110 109 112 109 95 88 84 72 61 
73 86 89 95 100 98 95 89 86 
80 73 63 5 5 5 5 63 67 
67 66 70 74 75 73 67 62 78 
92 94 101 110 113 114 114 115 115 
116 116 108 93 84 84 88 97 106 
108 102 90 79 74 78 85 93 103 
110 109 105 98 92 88 85 80 5 
5 5 16 26 50 69 75 77 80 
82 86 92 96 99 103 108 110 110 
106 100 93 86 82 80 80 83 92 
104 111 108 107 112 111 101 92 87 
82 72 76 86 90 98 103 97 90 
86 82 76 70 62 5 5 60 68 
77 78 82 85 85 88 85 74 77 
89 91 94 101 110 115 116 116 117 
116 118 114 99 86 82 83 92 99 
104 106 99 88 82 83 88 96 106 
111 109 107 104 98 91 88 86 5 
5 5 17 25 53 72 81 84 84 
85 87 90 96 101 106 112 114 111 
109 105 98 93 87 83 80 78 83 
94 106 112 107 105 111 111 107 101 
89 85 79 77 82 87 97 102 95 
86 80 73 67 63 66 5 5 5 
56 68 76 82 85 85 86 87 84 
78 82 90 91 93 98 105 113 116 
117 117 119 115 105 90 83 81 85 
92 100 106 108 101 93 92 98 106 
112 112 106 104 105 102 96 89 86 
5 85 5 5 5 15 23 50 76 
81 87 89 89 91 93 98 105 107 
110 113 115 113 111 105 99 94 88 
84 81 77 83 93 106 112 108 105 
109 111 110 107 94 85 82 76 78 
85 93 101 93 84 79 70 63 58 
64 5 5 48 59 72 77 80 83 
86 89 85 79 78 84 88 90 91 
94 104 112 114 115 118 118 111 95 
84 79 79 84 93 101 107 111 107 
103 106 111 111 106 101 97 96 97 
94 90 89 88 5 80 5 55 5 
5 19 43 73 83 84 90 93 95 
98 100 105 109 111 110 111 114 114 
111 106 99 94 88 83 79 78 82 
93 108 113 109 106 108 111 110 109 
98 87 84 76 73 83 89 98 96 
88 82 77 68 63 64 5 5 48 
52 67 75 75 79 87 89 85 81 
77 79 83 86 87 90 96 107 113 
114 116 118 115 101 90 83 77 79 
86 91 98 107 110 105 107 110 104 
97 91 85 84 90 91 90 88 87 
82 66 5 38 5 18 5 5 5 
15 33 67 83 85 89 94 99 102 
104 106 108 110 112 112 111 112 110 
109 106 100 94 88 82 78 79 81 
92 109 112 110 108 106 108 109 109 
100 89 86 77 66 77 89 96 98 
91 83 78 71 66 61 5 5 5 
48 58 65 70 79 89 91 85 80 
79 82 82 84 87 90 96 106 115 
117 114 116 118 108 93 85 78 76 
81 85 90 100 106 106 105 101 92 
87 82 76 76 80 85 86 86 84 
78 72 58 31 5 5 5 14 23 
50 78 87 90 93 97 100 104 108 
110 110 110 112 112 112 111 108 105 
99 94 91 85 79 76 79 84 95 
109 111 110 112 109 108 110 108 102 
91 87 82 70 73 87 93 97 92 
84 77 71 63 5 5 5 51 51 
59 68 79 90 90 83 77 81 85 
86 87 89 91 98 106 114 116 115 
115 118 114 101 91 83 78 76 82 
87 92 96 97 93 88 82 78 71 
63 67 75 79 82 82 82 76 69 
68 52 5 22 5 5 5 16 18 
37 64 81 87 90 92 95 98 103 
107 110 111 110 111 109 110 107 104 
100 93 88 85 80 75 72 79 84 
99 111 111 110 111 109 109 111 106 
100 92 87 84 78 75 86 90 96 
92 83 77 68 58 5 5 62 49 
58 70 82 88 88 83 78 81 85 
86 89 90 90 97 107 115 117 116 
114 116 116 109 97 89 83 78 82 
84 85 87 88 86 85 79 66 55 
53 63 73 75 77 80 80 80 73 
69 67 34 5 5 16 26 51 69 
79 85 87 87 90 97 103 106 112 
113 111 109 106 105 101 98 93 89 
84 80 76 75 76 83 89 105 112 
112 110 110 110 110 109 102 95 90 
87 84 79 74 84 88 95 92 83 
75 67 63 5 5 5 50 59 75 
81 84 86 83 80 82 86 88 90 
89 90 96 107 114 115 116 115 115 
116 112 101 91 86 81 79 79 82 
83 83 81 76 66 59 60 65 71 
75 78 79 81 82 83 81 77 75 
48 5 18 5 5 5 17 18 36 
56 62 74 83 83 86 90 96 101 
103 110 113 113 109 105 103 99 93 
88 84 83 81 78 79 82 86 97 
109 112 112 109 111 112 111 101 93 
89 89 86 84 78 73 82 86 93 
93 85 75 68 66 5 5 50 58 
77 82 84 83 81 80 84 89 90 
90 90 91 95 103 112 117 118 118 
117 115 113 104 91 87 80 71 74 
78 78 78 71 65 66 73 79 82 
82 84 85 84 85 86 86 87 85 
83 64 25 5 5 5 17 15 26 
48 56 58 71 77 81 83 87 90 
96 101 110 112 113 110 107 104 98 
90 83 80 80 81 82 83 85 93 
107 114 114 115 112 111 113 109 97 
88 85 86 84 84 78 74 82 87 
91 92 85 75 69 67 5 5 49 
60 75 79 81 80 77 81 87 89 
90 90 90 92 94 101 111 118 118 
119 118 116 113 103 92 88 75 63 
74 81 79 79 76 75 80 85 86 
87 90 92 94 95 97 96 94 93 
90 89 80 38 5 14 5 5 15 
20 45 65 68 67 66 69 78 82 
85 87 93 98 107 114 116 114 113 
108 101 92 86 82 79 79 81 83 
86 98 111 114 115 115 113 114 113 
104 91 86 84 84 84 84 79 75 
81 85 89 91 84 76 70 66 5 
5 5 63 74 82 81 75 73 82 
89 91 93 91 90 93 94 101 109 
115 117 118 117 117 112 99 88 82 
72 71 84 85 85 85 85 87 88 
92 98 103 107 108 107 107 105 103 
98 94 91 89 82 51 21 5 5 
5 17 17 40 70 81 82 80 72 
65 68 76 82 84 88 95 101 110 
116 116 115 114 110 104 92 85 81 
78 79 81 84 96 111 114 115 115 
114 115 111 100 89 83 84 85 85 
84 80 75 79 84 88 87 81 77 
68 68 5 5 64 73 81 82 75 
71 81 89 90 93 90 89 93 96 
102 108 114 117 117 116 117 110 95 
85 77 76 83 87 89 94 95 97 
99 103 108 111 113 113 111 107 101 
96 94 90 87 89 85 73 58 38 
5 18 5 5 14 28 65 85 86 
86 85 81 71 59 66 79 84 85 
88 92 100 111 116 117 115 115 111 
103 92 86 83 79 78 82 93 109 
113 115 116 115 113 109 96 87 83 
85 86 85 83 80 72 73 80 84 
84 82 79 71 69 5 5 61 73 
82 83 77 73 82 89 88 92 87 
87 91 95 103 110 114 116 114 114 
117 109 94 84 79 82 90 95 102 
107 110 111 111 114 115 116 113 108 
102 95 89 87 85 84 80 80 76 
72 71 66 38 5 19 5 5 5 
12 19 52 81 86 88 88 86 84 
80 69 61 67 76 82 84 87 91 
101 112 116 116 117 115 112 101 90 
84 80 79 82 92 109 113 112 113 
112 113 108 92 85 82 85 85 86 
84 80 64 65 78 85 85 82 79 
72 62 5 56 5 5 58 69 79 
85 81 75 81 87 88 91 86 87 
88 95 104 110 112 116 114 114 116 
110 98 87 84 87 95 105 112 113 
113 113 114 116 116 113 105 95 90 
87 84 79 75 76 75 79 82 86 
86 85 69 44 5 5 13 34 75 
86 88 93 98 93 87 84 83 75 
69 70 76 81 84 86 92 103 113 
116 116 115 113 103 93 87 82 79 
83 93 110 114 113 112 112 113 108 
90 84 82 85 85 86 85 80 58 
59 74 80 79 79 76 69 60 57 
5 5 54 68 77 83 82 77 79 
83 87 88 83 83 85 91 102 110 
112 113 115 115 115 114 108 100 98 
102 107 113 116 118 116 114 115 115 
112 105 94 88 84 81 78 75 75 
78 82 85 89 91 89 87 83 69 
5 30 5 5 15 52 84 87 90 
99 106 103 94 88 85 83 81 77 
75 75 79 83 88 95 107 113 115 
114 113 105 93 84 80 81 86 97 
112 114 113 112 113 111 107 92 83 
81 84 85 86 85 77 59 60 71 
75 74 71 65 61 58 60 5 5 
53 71 80 83 83 78 78 82 84 
83 77 78 84 86 96 109 114 114 
117 116 115 115 115 113 113 115 113 
114 115 117 117 115 114 113 105 93 
86 83 77 73 76 79 82 85 87 
89 92 95 92 90 86 83 48 5 
5 5 13 23 61 84 88 90 97 
105 110 105 99 90 86 85 83 81 
73 72 80 84 88 98 110 114 114 
114 106 94 83 81 83 86 98 113 
114 112 113 114 110 109 95 86 82 
82 84 86 85 78 66 67 73 73 
70 62 49 45 53 57 5 5 55 
74 81 83 82 78 75 78 79 75 
67 71 86 88 92 101 110 114 115 
115 116 115 117 118 118 117 114 115 
114 115 117 118 115 106 95 86 83 
80 75 77 83 85 87 89 93 98 
102 103 98 92 86 85 67 5 5 
14 35 65 83 85 87 92 100 107 
109 107 100 94 90 87 85 81 79 
78 79 82 90 103 113 115 115 108 
97 85 81 83 86 99 111 112 111 
111 112 110 110 97 86 81 80 81 
83 83 78 76 76 77 73 67 61 
45 42 53 57 5 5 55 75 82 
83 83 78 76 78 76 69 63 65 
81 87 88 94 105 113 116 115 117 
117 118 117 117 118 117 115 117 117 
117 116 111 99 87 82 79 78 80 
85 86 87 92 99 106 111 112 109 
102 93 89 86 80 5 41 5 5 
23 59 79 84 86 88 91 100 104 
108 106 102 97 93 90 86 83 79 
76 77 81 87 100 111 114 114 109 
99 89 84 84 89 101 110 113 113 
113 113 111 111 101 87 80 78 77 
80 83 80 81 80 79 77 75 70 
55 48 56 56 5 5 61 78 82 
82 82 78 78 78 77 70 64 64 
76 84 86 92 100 108 114 113 114 
117 118 117 116 118 118 117 119 118 
116 115 106 90 84 80 78 81 86 
88 92 97 106 112 114 115 110 104 
97 91 89 86 82 48 5 5 5 
17 37 77 87 88 90 92 95 98 
102 106 104 98 95 92 92 89 87 
84 80 78 80 85 100 113 115 115 
113 106 98 91 91 94 100 109 113 
114 114 111 110 110 102 91 83 79 
76 80 82 82 84 84 82 81 80 
75 62 56 58 55 5 5 65 75 
78 80 79 76 78 77 75 69 64 
65 77 83 86 90 96 106 114 115 
113 114 116 117 115 117 118 119 118 
117 116 115 103 89 82 79 82 85 
89 96 105 110 115 117 114 109 100 
90 85 86 86 85 76 50 5 21 
5 5 19 52 85 88 91 95 98 
102 103 104 106 103 97 92 91 91 
87 85 85 83 80 81 86 102 116 
116 116 117 112 105 99 101 103 105 
112 115 114 113 111 110 108 100 93 
87 82 80 82 83 85 87 86 83 
82 79 74 67 60 60 55 5 5 
68 67 61 67 71 72 73 75 71 
64 62 71 82 85 87 92 96 104 
111 113 113 113 115 117 118 118 119 
119 118 118 116 116 106 94 85 83 
86 89 98 110 117 116 116 115 109 
101 92 83 83 82 82 82 67 49 
27 5 5 21 66 89 89 94 101 
104 106 105 106 103 99 94 90 89 
89 88 85 84 83 83 86 96 110 
117 116 118 116 115 113 111 110 110 
111 115 114 113 113 111 108 103 99 
93 88 84 86 87 85 87 88 86 
84 82 79 75 72 64 63 59 5 
51 5 5 71 60 41 46 58 68 
73 75 72 65 68 80 87 89 91 
94 94 100 106 111 112 111 114 115 
117 119 120 120 119 118 116 116 110 
105 100 96 98 103 111 117 118 114 
110 105 98 91 87 82 82 82 81 
81 69 58 36 5 5 5 14 25 
72 90 88 92 103 109 111 107 105 
100 95 88 86 87 87 87 85 84 
83 86 92 106 117 117 118 118 116 
116 116 115 115 116 115 114 114 113 
111 110 104 97 94 91 90 86 84 
86 86 87 85 82 83 82 81 76 
73 67 65 62 52 5 5 73 60 
40 44 56 66 72 77 77 73 79 
85 88 90 89 91 91 92 99 109 
111 112 112 112 114 115 117 119 119 