# vtk DataFile Version 4.0
vtk output
ASCII
DATASET POLYDATA
POINTS 17734 float
17.6429 -105 -15 17 -105.643 -15 17 -105 -15 
16 -105.688 -15 16 -105 -15 15 -105.688 -15 
15 -105 -15 14 -105.722 -15 14 -105 -15 
13 -105.762 -15 13 -105 -15 12.2381 -105 -15 
20.6875 -104 -15 20 -104.688 -15 20 -104 -15 
19 -104.706 -15 19 -104 -15 18 -104.737 -15 
18 -104 -15 17 -104 -15 16 -104 -15 
15 -104 -15 14 -104 -15 13 -104 -15 
12 -104.808 -15 12 -104 -15 11 -104.792 -15 
11 -104 -15 10 -104.792 -15 10 -104 -15 
9.20833 -104 -15 22.7368 -103 -15 22 -103.737 -15 
22 -103 -15 21 -103.821 -15 21 -103 -15 
20 -103 -15 19 -103 -15 18 -103 -15 
17 -103 -15 16 -103 -15 15 -103 -15 
14 -103 -15 13 -103 -15 12 -103 -15 
11 -103 -15 10 -103 -15 9 -103.839 -15 
9 -103 -15 8 -103.792 -15 8 -103 -15 
7 -103.8 -15 7 -103 -15 6 -103.839 -15 
6 -103 -15 5.16129 -103 -15 -19.2778 -103 -15 
-20 -103.722 -15 -20 -103 -15 -21 -103.722 -15 
-21 -103 -15 -22 -103.706 -15 -22 -103 -15 
-22.7059 -103 -15 25.7059 -102 -15 25 -102.706 -15 
25 -102 -15 24 -102.773 -15 24 -102 -15 
23 -102.861 -15 23 -102 -15 22 -102 -15 
21 -102 -15 20 -102 -15 19 -102 -15 
18 -102 -15 17 -102 -15 16 -102 -15 
15 -102 -15 14 -102 -15 13 -102 -15 
12 -102 -15 11 -102 -15 10 -102 -15 
9 -102 -15 8 -102 -15 7 -102 -15 
6 -102 -15 5 -102.833 -15 5 -102 -15 
4.16667 -102 -15 -17.1667 -102 -15 -18 -102.833 -15 
-18 -102 -15 -18.8333 -102 -15 -19.122 -102 -15 
-20 -102 -15 -21 -102 -15 -22 -102 -15 
-23 -102.853 -15 -23 -102 -15 -24 -102.8 -15 
-24 -102 -15 -25 -102.706 -15 -25 -102 -15 
-26 -102.667 -15 -26 -102 -15 -26.6667 -102 -15 
27.6154 -101 -15 27 -101.615 -15 27 -101 -15 
26 -101.688 -15 26 -101 -15 25 -101 -15 
24 -101 -15 23 -101 -15 22 -101 -15 
21 -101 -15 20 -101 -15 19 -101 -15 
18 -101 -15 17 -101 -15 16 -101 -15 
15 -101 -15 14 -101 -15 13 -101 -15 
12 -101 -15 11 -101 -15 10 -101 -15 
9 -101 -15 8 -101 -15 7 -101 -15 
6 -101 -15 5 -101 -15 4 -101.828 -15 
4 -101 -15 3.17241 -101 -15 -17.0847 -101 -15 
-18 -101 -15 -19 -101.93 -15 -19 -101 -15 
-20 -101 -15 -21 -101 -15 -22 -101 -15 
-23 -101 -15 -24 -101 -15 -25 -101 -15 
-26 -101 -15 -27 -101.667 -15 -27 -101 -15 
-27.6667 -101 -15 28.6875 -100 -15 28 -100.688 -15 
28 -100 -15 27 -100 -15 26 -100 -15 
25 -100 -15 24 -100 -15 23 -100 -15 
22 -100 -15 21 -100 -15 20 -100 -15 
19 -100 -15 18 -100 -15 17 -100 -15 
16 -100 -15 15 -100 -15 14 -100 -15 
13 -100 -15 12 -100 -15 11 -100 -15 
10 -100 -15 9 -100 -15 8 -100 -15 
7 -100 -15 6 -100 -15 5 -100 -15 
4 -100 -15 3.2 -100 -15 -15.0893 -100 -15 
-16 -100.911 -15 -16 -100 -15 -17 -100.928 -15 
-17 -100 -15 -18 -100 -15 -19 -100 -15 
-20 -100 -15 -21 -100 -15 -22 -100 -15 
-23 -100 -15 -24 -100 -15 -25 -100 -15 
-26 -100 -15 -27 -100 -15 -28 -100.737 -15 
-28 -100 -15 -29 -100.643 -15 -29 -100 -15 
-29.6429 -100 -15 29.7059 -99 -15 29 -99.7059 -15 
29 -99 -15 28 -99 -15 27 -99 -15 
26 -99 -15 25 -99 -15 24 -99 -15 
23 -99 -15 22 -99 -15 21 -99 -15 
20 -99 -15 19 -99 -15 18 -99 -15 
17 -99 -15 16 -99 -15 15 -99 -15 
14 -99 -15 13 -99 -15 12 -99 -15 
11 -99 -15 10 -99 -15 9 -99 -15 
8 -99 -15 7 -99 -15 6 -99 -15 
5 -99 -15 4 -99 -15 3.16129 -99 -15 
-12.0769 -99 -15 -13 -99.9231 -15 -13 -99 -15 
-14 -99.9219 -15 -14 -99 -15 -15 -99.9275 -15 
-15 -99 -15 -16 -99 -15 -17 -99 -15 
-18 -99 -15 -19 -99 -15 -20 -99 -15 
-21 -99 -15 -22 -99 -15 -23 -99 -15 
-24 -99 -15 -25 -99 -15 -26 -99 -15 
-27 -99 -15 -28 -99 -15 -29 -99 -15 
-30 -99.7368 -15 -30 -99 -15 -30.7368 -99 -15 
30.7368 -98 -15 30 -98.7368 -15 30 -98 -15 
29 -98 -15 28 -98 -15 27 -98 -15 
26 -98 -15 25 -98 -15 24 -98 -15 
23 -98 -15 22 -98 -15 21 -98 -15 
20 -98 -15 19 -98 -15 18 -98 -15 
17 -98 -15 16 -98 -15 15 -98 -15 
14 -98 -15 13 -98 -15 12 -98 -15 
11 -98 -15 10 -98 -15 9 -98 -15 
8 -98 -15 7 -98 -15 6 -98 -15 
5 -98 -15 4 -98 -15 3 -98.8864 -15 
3 -98 -15 2 -98.8611 -15 2 -98 -15 
1.13889 -98 -15 -13 -98.0769 -15 -14 -98.0781 -15 
-14.0746 -98 -15 -15 -98 -15 -16 -98 -15 
-17 -98 -15 -18 -98 -15 -19 -98 -15 
-20 -98 -15 -21 -98 -15 -22 -98 -15 
-23 -98 -15 -24 -98 -15 -25 -98 -15 
-26 -98 -15 -27 -98 -15 -28 -98 -15 
-29 -98 -15 -30 -98 -15 -31 -98.8 -15 
-31 -98 -15 -32 -98.6875 -15 -32 -98 -15 
-32.6875 -98 -15 31.8077 -97 -15 31 -97.8077 -15 
31 -97 -15 30 -97 -15 29 -97 -15 
28 -97 -15 27 -97 -15 26 -97 -15 
25 -97 -15 24 -97 -15 23 -97 -15 
22 -97 -15 21 -97 -15 20 -97 -15 
19 -97 -15 18 -97 -15 17 -97 -15 
16 -97 -15 15 -97 -15 14 -97 -15 
13 -97 -15 12 -97 -15 11 -97 -15 
10 -97 -15 9 -97 -15 8 -97 -15 
7 -97 -15 6 -97 -15 5 -97 -15 
4 -97 -15 3 -97 -15 2 -97 -15 
1.07937 -97 -15 -14.0833 -97 -15 -15 -97 -15 
-16 -97 -15 -17 -97 -15 -18 -97 -15 
-19 -97 -15 -20 -97 -15 -21 -97 -15 
-22 -97 -15 -23 -97 -15 -24 -97 -15 
-25 -97 -15 -26 -97 -15 -27 -97 -15 
-28 -97 -15 -29 -97 -15 -30 -97 -15 
-31 -97 -15 -32 -97 -15 -33 -97.6875 -15 
-33 -97 -15 -33.6875 -97 -15 32.8276 -96 -15 
32 -96.8276 -15 32 -96 -15 31 -96 -15 
30 -96 -15 29 -96 -15 28 -96 -15 
27 -96 -15 26 -96 -15 25 -96 -15 
24 -96 -15 23 -96 -15 22 -96 -15 
21 -96 -15 20 -96 -15 19 -96 -15 
18 -96 -15 17 -96 -15 16 -96 -15 
15 -96 -15 14 -96 -15 13 -96 -15 
12 -96 -15 11 -96 -15 10 -96 -15 
9 -96 -15 8 -96 -15 7 -96 -15 
6 -96 -15 5 -96 -15 4 -96 -15 
3 -96 -15 2 -96 -15 1.06494 -96 -15 
-12.0847 -96 -15 -13 -96.9153 -15 -13 -96 -15 
-14 -96.9167 -15 -14 -96 -15 -15 -96 -15 
-16 -96 -15 -17 -96 -15 -18 -96 -15 
-19 -96 -15 -20 -96 -15 -21 -96 -15 
-22 -96 -15 -23 -96 -15 -24 -96 -15 
-25 -96 -15 -26 -96 -15 -27 -96 -15 
-28 -96 -15 -29 -96 -15 -30 -96 -15 
-31 -96 -15 -32 -96 -15 -33 -96 -15 
-34 -96.7727 -15 -34 -96 -15 -34.7727 -96 -15 
34.7368 -95 -15 34 -95.7368 -15 34 -95 -15 
33.2632 -95 -15 32.918 -95 -15 32 -95 -15 
31 -95 -15 30 -95 -15 29 -95 -15 
28 -95 -15 27 -95 -15 26 -95 -15 
25 -95 -15 24 -95 -15 23 -95 -15 
22 -95 -15 21 -95 -15 20 -95 -15 
19 -95 -15 18 -95 -15 17 -95 -15 
16 -95 -15 15 -95 -15 14 -95 -15 
13 -95 -15 12 -95 -15 11 -95 -15 
10 -95 -15 9 -95 -15 8 -95 -15 
7 -95 -15 6 -95 -15 5 -95 -15 
4 -95 -15 3 -95 -15 2 -95 -15 
1.06579 -95 -15 -12.0806 -95 -15 -13 -95 -15 
-14 -95 -15 -15 -95 -15 -16 -95 -15 
-17 -95 -15 -18 -95 -15 -19 -95 -15 
-20 -95 -15 -21 -95 -15 -22 -95 -15 
-23 -95 -15 -24 -95 -15 -25 -95 -15 
-26 -95 -15 -27 -95 -15 -28 -95 -15 
-29 -95 -15 -30 -95 -15 -31 -95 -15 
-32 -95 -15 -33 -95 -15 -34 -95 -15 
-35 -95.8529 -15 -35 -95 -15 -36 -95.7368 -15 
-36 -95 -15 -36.7368 -95 -15 35.7368 -94 -15 
35 -94.7368 -15 35 -94 -15 34 -94 -15 
33 -94.9265 -15 33 -94 -15 32 -94 -15 
31 -94 -15 30 -94 -15 29 -94 -15 
28 -94 -15 27 -94 -15 26 -94 -15 
25 -94 -15 24 -94 -15 23 -94 -15 
22 -94 -15 21 -94 -15 20 -94 -15 
19 -94 -15 18 -94 -15 17 -94 -15 
16 -94 -15 15 -94 -15 14 -94 -15 
13 -94 -15 12 -94 -15 11 -94 -15 
10 -94 -15 9 -94 -15 8 -94 -15 
7 -94 -15 6 -94 -15 5 -94 -15 
4 -94 -15 3 -94 -15 2 -94 -15 
1.07143 -94 -15 -13 -94.0806 -15 -14 -94.0806 -15 
-15 -94.0794 -15 -16 -94.0658 -15 -16.0649 -94 -15 
-17 -94 -15 -18 -94 -15 -19 -94 -15 
-20 -94 -15 -21 -94 -15 -22 -94 -15 
-23 -94 -15 -24 -94 -15 -25 -94 -15 
-26 -94 -15 -27 -94 -15 -28 -94 -15 
-29 -94 -15 -30 -94 -15 -31 -94 -15 
-32 -94 -15 -33 -94 -15 -34 -94 -15 
-35 -94 -15 -36 -94 -15 -37 -94.7222 -15 
-37 -94 -15 -37.7222 -94 -15 37.6429 -93 -15 
37 -93.6429 -15 37 -93 -15 36.3571 -93 -15 
35.881 -93 -15 35 -93 -15 34 -93 -15 
33 -93 -15 32 -93 -15 31 -93 -15 
30 -93 -15 29 -93 -15 28 -93 -15 
27 -93 -15 26 -93 -15 25 -93 -15 
24 -93 -15 23 -93 -15 22 -93 -15 
21 -93 -15 20 -93 -15 19 -93 -15 
18 -93 -15 17 -93 -15 16 -93 -15 
15 -93 -15 14 -93 -15 13 -93 -15 
12 -93 -15 11 -93 -15 10 -93 -15 
9 -93 -15 8 -93 -15 7 -93 -15 
6 -93 -15 5 -93 -15 4 -93 -15 
3 -93 -15 2 -93 -15 1.07463 -93 -15 
0.926471 -93 -15 0 -93.9265 -15 0 -93 -15 
-0.926471 -93 -15 -15.0781 -93 -15 -16 -93.9219 -15 
-16 -93 -15 -17 -93 -15 -18 -93 -15 
-19 -93 -15 -20 -93 -15 -21 -93 -15 
-22 -93 -15 -23 -93 -15 -24 -93 -15 
-25 -93 -15 -26 -93 -15 -27 -93 -15 
-28 -93 -15 -29 -93 -15 -30 -93 -15 
-31 -93 -15 -32 -93 -15 -33 -93 -15 
-34 -93 -15 -35 -93 -15 -36 -93 -15 
-37 -93 -15 -38 -93.7222 -15 -38 -93 -15 
-38.7222 -93 -15 37.7727 -92 -15 37 -92 -15 
36 -92.8913 -15 36 -92 -15 35 -92 -15 
34 -92 -15 33 -92 -15 32 -92 -15 
31 -92 -15 30 -92 -15 29 -92 -15 
28 -92 -15 27 -92 -15 26 -92 -15 
25 -92 -15 24 -92 -15 23 -92 -15 
22 -92 -15 21 -92 -15 20 -92 -15 
19 -92 -15 18 -92 -15 17 -92 -15 
16 -92 -15 15 -92 -15 14 -92 -15 
13 -92 -15 12 -92 -15 11 -92 -15 
10 -92 -15 9 -92 -15 8 -92 -15 
7 -92 -15 6 -92 -15 5 -92 -15 
4 -92 -15 3 -92 -15 2 -92 -15 
1.07937 -92 -15 0 -92.0735 -15 -14.0806 -92 -15 
-15 -92.9194 -15 -15 -92 -15 -16 -92 -15 
-17 -92 -15 -18 -92 -15 -19 -92 -15 
-20 -92 -15 -21 -92 -15 -22 -92 -15 
-23 -92 -15 -24 -92 -15 -25 -92 -15 
-26 -92 -15 -27 -92 -15 -28 -92 -15 
-29 -92 -15 -30 -92 -15 -31 -92 -15 
-32 -92 -15 -33 -92 -15 -34 -92 -15 
-35 -92 -15 -36 -92 -15 -37 -92 -15 
-38 -92 -15 -39 -92.7368 -15 -39 -92 -15 
-40 -92.6875 -15 -40 -92 -15 -40.6875 -92 -15 
38.7826 -91 -15 38 -91.7826 -15 38 -91 -15 
37 -91 -15 36 -91 -15 35 -91 -15 
34 -91 -15 33 -91 -15 32 -91 -15 
31 -91 -15 30 -91 -15 29 -91 -15 
28 -91 -15 27 -91 -15 26 -91 -15 
25 -91 -15 24 -91 -15 23 -91 -15 
22 -91 -15 21 -91 -15 20 -91 -15 
19 -91 -15 18 -91 -15 17 -91 -15 
16 -91 -15 15 -91 -15 14 -91 -15 
13 -91 -15 12 -91 -15 11 -91 -15 
10 -91 -15 9 -91 -15 8 -91 -15 
7 -91 -15 6 -91 -15 5 -91 -15 
4 -91 -15 3 -91 -15 2 -91 -15 
1.08197 -91 -15 0.920635 -91 -15 0 -91.9206 -15 
0 -91 -15 -0.920635 -91 -15 -15 -91.0806 -15 
-16 -91.0926 -15 -17 -91.098 -15 -17.0943 -91 -15 
-18 -91 -15 -19 -91 -15 -20 -91 -15 
-21 -91 -15 -22 -91 -15 -23 -91 -15 
-24 -91 -15 -25 -91 -15 -26 -91 -15 
-27 -91 -15 -28 -91 -15 -29 -91 -15 
-30 -91 -15 -31 -91 -15 -32 -91 -15 
-33 -91 -15 -34 -91 -15 -35 -91 -15 
-36 -91 -15 -37 -91 -15 -38 -91 -15 
-39 -91 -15 -40 -91 -15 -40.7727 -91 -15 
38.8936 -90 -15 38 -90 -15 37 -90 -15 
36 -90 -15 35 -90 -15 34 -90 -15 
[...]
POINT_DATA 17734
SCALARS scalars float
LOOKUP_TABLE default
5 5 14 5 16 5 16 5 18 
5 21 5 5 5 16 5 17 5 
19 22 24 24 25 26 5 26 5 
24 5 24 5 5 5 19 5 28 
38 46 52 58 63 62 61 59 57 
49 40 5 31 5 24 5 25 5 
31 5 5 5 18 5 18 5 17 
5 5 5 17 5 22 5 36 55 
69 76 83 85 88 90 90 90 91 
88 81 72 59 42 27 27 5 30 
5 5 5 30 5 5 41 41 39 
5 34 5 25 5 17 5 15 5 
5 5 13 5 16 30 58 78 87 
92 92 94 96 99 100 100 99 100 
97 95 91 84 69 49 30 23 5 
29 5 5 59 5 71 76 77 79 
78 66 47 26 5 15 5 5 5 
16 20 35 65 87 94 96 99 99 
97 100 104 105 106 107 106 105 104 
101 97 90 71 49 29 25 5 5 
5 56 5 69 80 89 91 94 95 
95 94 84 61 34 5 19 5 14 
5 5 5 17 25 39 61 84 93 
98 102 102 98 94 97 103 107 109 
104 102 106 110 105 99 93 84 69 
51 31 5 5 5 65 5 64 5 
69 75 82 88 95 97 98 99 102 
101 97 87 71 49 29 5 19 5 
5 5 19 32 49 57 69 88 95 
103 106 100 92 86 94 102 104 105 
96 91 99 108 104 98 90 82 76 
70 56 5 44 5 36 5 5 5 
5 67 72 80 89 97 100 102 102 
104 105 102 96 92 84 68 43 5 
25 5 16 5 5 5 26 44 63 
71 72 80 91 100 109 107 99 88 
76 87 101 103 101 92 87 94 105 
104 98 90 81 70 70 74 71 63 
5 5 60 67 80 93 99 101 102 
105 106 107 107 103 99 95 93 82 
59 32 5 16 5 5 5 29 54 
75 85 87 88 90 96 106 111 105 
98 86 73 78 92 95 92 88 87 
94 103 102 97 90 80 63 61 72 
78 77 5 5 5 59 5 60 59 
68 84 93 96 101 104 106 109 110 
111 110 106 100 98 96 85 61 37 
5 22 5 5 5 19 5 5 61 
81 90 95 98 101 103 106 110 112 
108 101 90 78 71 76 80 80 84 
88 96 103 101 95 87 76 60 59 
67 75 76 5 5 62 62 63 76 
87 90 90 97 103 105 109 110 112 
112 111 107 103 97 87 71 56 47 
5 34 5 19 5 5 5 19 41 
5 68 84 93 99 106 109 106 105 
107 108 108 109 104 96 88 79 74 
68 69 80 91 98 102 100 94 87 
76 71 71 70 70 70 5 5 5 
5 5 5 77 80 86 91 97 101 
103 104 107 111 109 105 101 92 80 
67 61 60 57 36 5 18 5 5 
5 14 5 5 42 72 88 94 99 
107 110 108 101 95 94 98 101 107 
110 106 98 91 88 79 67 75 93 
98 101 99 91 88 85 82 76 71 
68 67 5 5 5 68 5 5 5 
64 62 70 78 83 90 93 95 95 
100 109 104 100 92 77 66 62 58 
58 59 54 35 5 18 5 5 22 
5 46 75 90 95 101 106 112 109 
104 96 87 81 84 90 100 108 112 
108 100 96 91 74 68 87 98 98 
97 92 88 86 82 76 70 66 63 
5 5 5 5 62 54 51 57 62 
67 74 80 84 89 97 103 99 92 
81 68 68 76 77 71 62 57 52 
33 5 19 5 16 5 5 5 23 
45 72 91 95 98 105 109 110 109 
105 98 89 83 80 82 92 98 107 
112 109 100 96 84 71 80 95 97 
97 94 90 86 79 75 70 64 61 
5 5 5 63 5 5 5 5 5 
53 55 59 66 77 85 91 101 103 
93 81 73 77 89 95 93 90 79 
63 58 52 36 22 5 5 47 69 
85 94 97 101 105 103 104 105 104 
102 97 91 86 83 82 88 96 104 
110 105 97 90 78 69 82 92 94 
94 88 82 78 73 68 62 60 5 
5 5 5 55 5 53 53 58 63 
67 77 85 90 93 89 79 74 81 
92 97 97 96 95 91 74 60 57 
55 42 5 23 5 5 5 16 5 
28 5 48 65 82 93 97 100 96 
93 93 95 97 100 102 102 98 93 
90 84 82 88 95 102 103 98 92 
84 69 66 80 87 89 87 80 75 
71 65 63 62 5 5 5 73 5 
76 5 74 5 66 5 59 57 56 
54 54 62 66 71 75 75 74 72 
72 80 92 96 98 104 104 98 93 
84 72 62 57 58 48 5 28 5 
16 5 5 5 22 38 57 63 72 
84 91 92 92 85 79 77 82 87 
91 93 93 93 92 90 85 80 79 
85 93 98 98 93 88 78 62 66 
77 81 81 78 73 69 67 64 63 
5 5 5 74 68 63 61 60 62 
65 61 59 58 62 66 65 66 73 
79 86 92 97 102 108 107 100 94 
88 86 81 71 65 62 50 30 5 
15 5 5 5 5 5 58 64 78 
85 85 82 76 68 62 64 71 78 
81 82 83 85 87 83 80 76 78 
87 92 95 92 86 81 65 55 65 
73 74 75 68 62 61 61 62 5 
5 5 75 73 70 69 68 69 71 
76 77 69 54 51 59 67 72 77 
81 82 88 96 101 106 107 102 97 
93 93 90 87 84 73 65 55 36 
5 5 5 67 5 68 5 70 61 
53 64 75 79 77 76 72 67 63 
65 73 81 83 83 85 84 83 81 
77 73 76 84 87 86 82 76 68 
59 57 64 69 69 66 60 57 57 
60 5 5 5 55 5 62 5 5 
72 69 71 76 76 74 77 79 83 
79 64 52 65 77 77 76 78 80 
87 93 97 100 105 103 101 101 98 
95 92 93 93 87 77 64 5 38 
5 5 5 5 5 57 43 51 68 
78 80 81 82 82 81 80 83 87 
89 90 89 88 87 85 85 75 61 
65 73 79 78 75 72 68 58 57 
58 5 5 5 58 57 54 50 5 
5 5 5 57 65 69 5 5 70 
65 68 77 81 80 81 80 81 73 
63 60 77 82 81 81 78 75 79 
86 92 95 100 102 103 104 104 101 
99 95 95 93 89 83 68 5 40 
5 5 5 51 5 51 54 54 57 
67 79 85 85 87 88 87 86 86 
91 96 98 98 94 91 88 88 80 
56 48 59 5 5 5 73 5 5 
5 5 5 5 5 5 49 48 5 
5 5 5 5 5 5 70 69 74 
80 82 80 79 76 72 64 59 64 
77 80 82 83 79 76 74 76 83 
90 95 99 103 105 106 104 103 100 
97 93 90 88 83 65 5 33 5 
5 5 56 59 64 72 78 76 73 
80 86 87 88 90 90 90 93 99 
103 103 102 98 96 91 86 76 55 
48 55 5 5 5 5 5 5 75 
78 5 5 5 5 74 71 69 66 
64 60 68 80 85 90 90 87 83 
75 69 75 87 91 94 100 101 104 
106 104 103 99 94 94 92 88 79 
57 5 26 5 5 5 64 73 76 
82 86 86 84 85 88 92 93 92 
92 93 96 99 103 104 102 98 94 
91 86 80 68 60 66 69 5 5 
5 5 5 71 5 5 5 61 59 
58 74 89 94 94 94 92 88 78 
64 67 81 88 91 94 96 99 101 
103 102 99 96 94 92 91 84 72 
47 5 5 5 52 74 80 84 88 
89 89 92 96 98 98 99 99 97 
98 99 101 105 103 98 94 88 85 
78 66 62 71 5 5 5 5 5 
57 53 59 79 91 95 96 97 94 
90 81 65 61 69 75 83 88 91 
94 97 98 97 97 97 94 91 92 
90 80 67 5 38 5 5 5 42 
55 75 84 88 89 92 96 99 100 
102 101 102 103 103 104 103 103 101 
98 93 91 85 79 67 62 5 5 
5 5 5 62 58 53 59 80 93 
93 98 99 95 91 88 81 76 72 
70 73 79 81 85 89 91 94 93 
93 93 91 90 90 85 78 60 5 
5 5 22 5 42 5 52 5 45 
45 58 78 87 90 92 98 103 104 
103 103 102 103 102 102 101 100 101 
98 95 89 86 81 68 58 67 5 
5 5 5 5 61 77 89 93 99 
101 97 93 91 90 88 85 82 78 
76 76 78 78 79 81 83 84 89 
93 91 91 87 79 73 5 5 5 
14 5 20 41 63 68 61 52 57 
79 87 89 96 102 102 103 102 101 
102 102 101 100 97 96 94 90 85 
81 79 73 58 58 5 5 5 5 
74 87 94 98 102 99 97 96 95 
92 90 90 89 85 81 77 72 67 
62 67 80 88 92 90 89 87 77 
74 5 5 5 44 68 77 78 73 
64 63 80 88 89 95 102 103 101 
97 96 96 97 96 94 91 87 81 
78 77 75 74 71 63 5 5 5 
71 84 93 95 99 99 97 99 100 
97 95 94 92 90 89 86 80 67 
54 62 81 87 93 92 87 85 76 
73 5 5 5 22 5 49 71 82 
84 83 79 71 66 80 87 90 97 
103 100 98 93 89 87 88 88 87 
83 75 72 70 68 68 68 67 5 
5 5 67 81 91 93 96 99 99 
99 99 99 99 99 98 97 96 92 
89 80 66 73 83 87 93 93 89 
82 72 68 5 5 45 75 84 87 
86 85 82 75 71 81 85 89 99 
103 99 96 89 82 78 79 80 79 
75 69 69 68 66 67 65 5 5 
5 67 78 88 93 95 98 98 100 
99 97 99 103 105 105 103 95 89 
85 77 79 84 88 92 92 89 83 
70 63 5 5 5 17 5 35 71 
84 87 89 88 87 82 75 75 82 
87 92 100 104 103 98 91 83 76 
73 71 72 74 75 75 74 74 73 
69 5 5 66 72 83 92 94 95 
95 95 96 95 99 105 108 110 107 
98 91 87 81 82 88 91 95 94 
89 86 74 62 5 5 5 16 29 
59 82 86 89 90 89 86 80 75 
78 84 87 93 100 104 104 100 94 
87 82 75 70 72 77 80 83 83 
80 79 78 5 5 65 65 77 87 
90 90 89 87 90 91 95 104 110 
112 108 98 89 83 81 82 87 92 
97 95 89 87 80 64 5 5 5 
15 30 51 70 84 88 89 91 90 
84 80 74 79 84 88 94 101 105 
105 102 99 92 87 85 82 82 84 
84 85 84 82 81 79 5 5 66 
60 66 75 76 79 79 77 82 89 
95 104 110 112 106 97 88 81 78 
82 84 91 97 97 91 87 85 65 
5 5 5 37 5 21 5 5 5 
13 29 58 65 68 84 88 90 94 
91 84 81 77 81 85 90 97 102 
105 106 104 102 99 91 88 88 87 
88 87 85 84 82 79 79 5 5 
72 60 56 57 60 64 67 69 80 
88 94 105 111 113 106 95 87 80 
76 79 82 88 95 96 92 88 87 
65 5 51 54 36 5 5 18 49 
78 70 67 80 86 92 96 93 86 
79 76 82 86 92 97 103 107 107 
106 101 99 97 94 92 92 90 90 
87 84 81 82 80 5 5 72 63 
61 60 61 63 69 76 87 91 98 
108 112 112 104 93 87 80 75 77 
82 86 94 97 92 88 83 67 61 
71 64 5 37 5 18 5 5 29 
56 69 64 69 78 86 94 94 90 
85 77 71 80 88 92 97 104 107 
106 103 98 96 96 95 94 94 90 
90 86 83 83 81 72 5 70 5 
5 72 70 73 71 70 69 76 86 
92 95 102 110 114 112 103 94 87 
81 79 80 83 85 94 96 90 88 
81 74 79 84 84 69 40 5 5 
5 15 5 5 5 28 50 63 68 
72 78 82 89 97 95 86 79 73 
72 81 89 96 102 106 105 102 98 
93 90 91 94 96 95 93 89 85 
83 81 75 67 72 5 5 72 75 
75 74 71 69 77 86 91 95 105 
111 111 109 102 95 88 81 80 80 
80 85 94 95 90 84 77 78 85 
88 88 83 69 5 45 5 5 15 
5 28 56 74 78 79 82 84 87 
95 95 88 79 72 69 78 85 90 
98 106 108 104 97 92 84 82 86 
91 94 94 92 88 83 83 79 70 
66 76 5 5 74 72 73 74 75 
75 75 81 90 92 99 106 112 111 
104 95 86 78 76 80 81 85 92 
95 89 81 75 83 88 89 89 84 
76 68 5 47 5 5 5 16 25 
55 76 82 84 85 87 90 95 97 
91 84 77 68 68 83 87 94 102 
106 104 100 92 86 75 76 84 90 
94 95 90 89 84 80 74 66 68 
5 5 5 79 74 73 76 82 83 
79 75 81 85 92 102 111 113 107 
96 88 78 75 81 82 84 89 94 
91 84 80 85 89 91 89 85 74 
66 62 5 48 5 5 5 50 74 
81 83 86 88 91 94 98 95 87 
82 77 69 71 83 90 98 104 107 
104 95 89 80 67 67 82 89 91 
94 90 87 83 78 70 66 75 5 
5 5 72 74 80 85 87 88 84 
80 77 84 94 105 112 109 100 91 
82 78 79 79 82 87 92 92 88 
87 87 90 91 87 83 73 63 62 
5 5 5 5 53 5 5 5 16 
5 23 5 45 64 74 80 83 84 
85 88 88 89 89 84 80 76 71 
75 84 88 95 103 108 104 94 86 
81 68 64 79 88 89 90 88 84 
81 78 73 67 74 5 5 74 76 
79 85 90 91 90 88 78 79 89 
100 109 111 104 95 88 83 80 78 
79 83 88 92 91 90 89 89 86 
82 77 69 63 61 5 67 71 5 
57 5 5 5 16 25 45 64 70 
77 80 79 79 81 84 83 84 84 
84 80 78 75 77 83 89 94 101 
107 104 97 90 87 81 70 72 83 
89 89 88 83 80 78 71 66 72 
5 5 79 81 79 83 89 91 90 
89 83 82 88 96 106 113 110 103 
94 87 84 81 78 80 84 89 90 
88 87 84 80 77 74 72 70 68 
71 75 73 5 49 5 5 5 15 
25 51 74 76 80 81 79 75 75 
77 79 80 80 79 79 78 77 78 
80 82 88 93 102 108 108 102 95 
88 87 80 70 74 87 89 88 84 
81 77 69 65 71 5 5 74 77 
81 83 86 89 86 82 78 81 87 
94 101 108 110 107 102 95 88 83 
76 76 78 79 82 82 81 78 76 
76 74 77 77 77 80 79 76 66 
5 41 5 5 5 13 21 45 78 
84 84 84 82 80 77 73 73 75 
76 77 78 77 73 72 78 80 81 
88 94 102 108 112 109 104 93 87 
83 72 69 83 89 89 86 84 81 
71 60 60 5 5 67 71 79 86 
88 88 84 78 72 74 81 88 95 
101 106 109 107 102 93 86 81 77 
71 74 79 80 80 78 73 73 78 
83 86 87 87 83 75 70 57 5 
5 14 34 70 87 85 89 89 87 
84 81 77 77 76 75 76 78 76 
69 66 74 82 83 89 96 102 109 
112 110 110 99 89 84 73 72 82 
86 88 88 85 83 78 65 58 5 
5 59 69 77 84 89 89 86 84 
80 77 79 83 85 90 97 106 111 
105 95 89 85 75 70 78 82 83 
82 79 75 78 85 87 90 91 90 
88 81 74 63 5 44 5 5 5 
15 23 52 83 85 87 91 98 99 
94 86 84 82 80 80 79 79 78 
73 66 72 83 85 90 97 103 108 
112 111 110 101 88 81 72 73 83 
87 87 88 86 84 81 73 60 5 
5 64 73 80 84 89 90 87 88 
87 86 85 85 85 87 93 104 113 
104 92 86 82 74 77 84 85 86 
85 83 84 87 89 92 96 96 93 
90 86 78 68 53 5 5 15 31 
67 85 84 88 95 103 107 105 98 
95 91 87 85 85 82 80 79 73 
71 81 85 90 98 105 107 107 110 
111 103 89 80 72 73 81 86 86 
88 88 84 80 76 66 5 5 68 
74 80 85 88 91 92 92 88 87 
88 88 88 92 98 108 111 99 86 
83 80 80 84 86 89 91 93 91 
92 94 97 102 104 102 97 91 87 
79 73 60 5 42 5 5 5 16 
15 34 69 84 85 86 89 96 103 
110 111 106 103 98 95 94 89 84 
82 79 74 78 84 87 94 103 107 
104 107 111 105 90 82 75 74 80 
84 85 87 85 82 79 75 71 5 
5 72 76 81 83 89 92 91 91 
92 92 94 97 98 103 108 111 103 
92 83 79 78 83 86 90 96 100 
102 99 99 102 108 108 107 103 97 
92 89 84 79 65 47 5 5 5 
20 15 23 40 62 76 85 84 86 
89 94 106 110 112 111 108 106 102 
96 90 84 83 78 77 83 87 92 
100 103 101 104 109 107 95 85 79 
75 79 85 84 84 82 82 81 77 
73 5 5 5 72 5 5 75 78 
82 85 88 90 88 88 91 96 102 
107 107 111 113 108 93 86 80 77 
79 85 88 94 97 102 105 105 108 
110 112 109 104 100 94 89 88 87 
79 67 49 5 29 5 5 16 16 
32 48 51 63 79 81 82 82 85 
94 104 112 111 107 105 103 100 95 
87 84 80 76 81 85 89 96 95 
95 98 103 109 100 87 79 74 77 
85 86 83 78 75 73 70 65 5 
69 79 5 5 5 66 69 75 81 
84 87 88 88 87 88 93 101 108 
111 113 111 100 87 81 75 77 83 
87 89 94 96 98 102 107 112 113 
110 105 98 92 89 87 86 87 76 
64 54 37 5 5 5 17 15 26 
45 51 47 55 65 72 76 80 81 
86 99 112 112 108 104 100 99 95 
89 85 82 75 80 85 88 93 92 
87 89 97 109 106 93 82 76 75 
81 84 83 79 71 64 59 59 66 
78 5 5 68 68 77 83 87 88 
88 89 86 85 89 96 107 113 114 
109 93 80 69 70 77 84 83 85 
90 90 90 97 106 112 113 106 97 
91 87 86 83 83 81 67 56 52 
46 5 26 5 5 15 17 39 56 
54 57 60 58 64 69 76 80 83 
89 103 113 110 106 102 98 93 89 
85 82 74 77 83 86 88 86 81 
84 89 102 109 101 87 81 78 79 
80 80 78 72 63 54 62 65 71 
5 5 64 68 76 82 89 90 90 
91 85 82 85 93 104 114 114 105 
91 78 67 69 76 82 83 83 79 
79 83 92 104 112 111 102 92 87 
84 79 78 77 72 62 53 53 53 
39 5 18 5 5 5 13 14 26 
51 62 64 70 69 69 66 67 72 
77 81 86 96 109 111 107 102 96 
91 88 85 80 72 71 79 84 85 
83 79 82 84 94 107 107 94 85 
81 79 77 78 78 78 73 65 65 
64 66 5 5 5 74 64 67 77 
83 89 92 93 91 86 79 81 87 
99 111 115 105 91 80 72 73 76 
76 79 77 70 73 82 93 105 114 
106 94 88 82 78 75 73 75 74 
71 70 67 62 54 33 5 5 11 
16 42 62 67 74 78 74 78 74 
75 77 80 81 86 94 106 113 111 
105 97 91 84 80 78 71 67 75 
82 82 77 73 78 81 88 102 111 
104 92 86 82 79 81 82 82 80 
76 73 69 67 5 5 78 71 70 
80 87 90 93 96 94 90 81 80 
83 91 106 115 109 94 83 79 78 
79 76 79 68 62 72 83 95 110 
114 102 89 83 77 71 71 76 80 
81 80 80 76 69 62 51 5 30 
5 5 12 25 56 70 73 79 79 
78 79 80 81 84 85 86 89 96 
105 112 114 111 105 94 83 79 76 
71 66 70 78 79 73 67 70 77 
82 95 111 112 102 96 88 85 85 
85 85 84 80 77 71 66 5 5 
76 75 77 81 86 90 94 99 98 
92 84 82 83 89 101 114 114 104 
93 86 83 83 81 81 66 66 79 
87 101 114 113 99 86 79 73 70 
75 81 83 84 86 85 82 76 69 
61 47 5 31 5 5 12 40 64 
73 76 79 78 80 78 83 85 86 
89 92 94 99 104 110 114 114 108 
97 86 81 77 73 71 72 75 76 
73 67 65 72 80 91 106 113 110 
107 99 94 91 89 89 85 85 81 
74 66 5 5 72 75 78 83 87 
91 98 102 99 92 87 85 84 86 
93 106 113 113 103 96 90 85 85 
83 64 71 83 92 107 115 110 97 
84 78 73 73 81 84 88 90 89 
86 84 82 76 68 61 52 5 5 
5 11 17 52 69 76 78 77 77 
80 81 83 87 91 94 98 100 102 
107 111 112 114 112 106 93 83 81 
80 80 81 80 77 76 71 61 67 
75 86 101 113 109 108 102 99 95 
94 91 85 84 82 77 71 5 5 
5 72 5 5 66 70 81 88 91 
95 101 103 102 97 91 88 85 83 
85 97 110 113 111 107 98 87 87 
80 62 73 86 97 111 115 110 96 
84 80 79 81 85 89 97 99 92 
88 85 86 83 75 69 69 5 48 
5 5 12 26 58 71 77 79 77 
76 78 84 88 92 96 99 103 105 
107 112 112 111 113 113 111 104 93 
86 84 85 85 84 82 82 81 64 
61 73 85 98 111 107 101 97 92 
89 89 87 84 82 81 78 73 5 
68 69 5 5 67 72 81 86 90 
95 100 101 100 97 92 87 84 82 
82 91 107 112 112 109 96 84 84 
77 71 78 89 104 114 114 112 100 
92 89 90 92 95 102 106 109 103 
95 88 86 85 81 76 76 58 5 
25 5 5 12 35 63 73 79 81 
78 79 80 87 90 94 98 101 105 
104 105 109 112 112 113 112 113 112 
109 101 97 96 94 91 88 83 82 
72 62 71 85 97 110 106 97 88 
84 82 83 82 81 78 75 72 71 
68 67 5 5 5 65 66 75 80 
87 92 95 99 98 96 93 90 86 
84 84 82 85 100 112 112 103 89 
82 78 78 82 87 96 111 115 112 
114 108 103 99 102 103 107 111 113 
113 112 107 99 94 89 87 82 81 
66 31 5 5 13 38 61 73 79 
80 79 81 84 88 94 97 103 106 
107 104 103 104 108 111 112 113 111 
111 114 114 111 108 104 102 98 87 
85 79 68 72 84 99 114 109 99 
87 82 80 80 78 78 77 73 70 
69 70 67 5 5 55 63 79 84 
87 90 92 94 92 92 91 90 87 
82 82 81 84 97 110 110 100 85 
78 74 79 84 93 105 115 116 113 
113 112 111 111 112 112 114 115 115 
114 114 112 111 108 100 92 87 83 
73 40 5 5 14 40 60 71 78 
82 80 81 85 88 97 103 107 108 
107 103 100 99 100 105 110 112 111 
112 112 115 114 111 109 110 107 97 
88 81 74 76 87 104 112 112 107 
97 92 87 83 82 80 79 77 77 
76 76 70 5 5 62 66 78 84 
86 87 89 89 87 87 86 85 85 
82 82 84 90 101 112 111 97 82 
76 77 85 90 100 112 114 114 115 
114 114 113 113 113 115 116 115 116 
112 108 106 105 106 102 95 88 83 
79 50 5 5 13 39 58 67 74 
80 80 81 85 90 97 104 108 110 
107 100 95 92 91 96 104 109 112 
112 112 114 113 112 111 111 110 103 
92 84 80 82 92 109 111 111 110 
107 105 102 97 92 88 85 82 80 
79 79 75 5 67 5 5 5 72 
66 74 80 83 85 85 86 85 84 
87 86 86 87 88 89 90 98 106 
114 114 101 84 79 80 86 94 106 
115 117 115 115 115 112 110 109 111 
114 116 115 110 102 97 94 92 93 
93 92 89 84 82 59 5 5 14 
38 54 62 67 72 77 82 84 88 
95 104 110 110 108 102 94 88 86 
88 94 104 112 112 113 113 110 108 
107 110 111 108 101 94 91 95 106 
111 110 111 111 112 111 109 109 105 
101 96 90 86 83 80 77 70 5 
70 5 5 67 67 77 80 81 84 
83 83 85 86 91 93 95 97 99 
100 103 109 111 114 113 104 89 83 
84 90 102 111 115 116 114 117 114 
107 103 105 108 113 114 111 101 93 
88 84 84 85 85 85 87 85 82 
61 5 5 5 13 14 38 57 66 
68 67 68 75 81 84 92 102 109 
112 111 104 95 88 85 84 87 93 
105 114 113 112 109 107 104 106 110 
111 109 106 105 108 111 109 108 109 
109 110 110 108 111 108 107 105 98 
91 85 80 74 73 68 5 5 63 
70 74 75 80 85 85 86 88 94 
101 105 109 111 113 111 112 112 112 
114 115 111 100 93 93 97 106 113 
116 116 114 115 112 105 100 100 104 
112 113 106 96 88 83 81 80 81 
83 83 84 85 81 57 5 5 15 
15 41 68 75 76 74 68 67 76 
81 86 96 107 114 111 105 97 91 
86 84 84 84 94 110 115 112 110 
106 100 99 106 112 114 113 112 111 
108 105 105 107 108 108 109 107 106 
104 105 104 103 98 90 81 75 72 
63 5 5 60 69 69 75 82 88 
91 95 100 108 112 112 114 115 115 
114 114 113 113 113 115 115 113 109 
104 106 113 116 117 116 117 115 109 
102 96 98 104 112 111 102 92 86 
80 80 79 78 79 81 81 80 72 
54 5 24 5 5 16 20 51 79 
85 85 83 77 71 73 80 85 92 
103 113 113 108 100 93 88 84 83 
81 85 101 113 114 113 107 97 93 
99 108 111 111 108 104 99 100 103 
107 107 108 108 104 101 99 100 100 
103 103 98 85 79 75 65 5 60 
5 5 63 66 69 80 88 92 97 
103 107 108 107 106 107 108 109 113 
114 113 113 114 114 115 116 112 110 
114 117 117 118 117 116 115 110 100 
94 98 105 112 112 99 89 84 81 
80 76 73 74 74 75 73 64 49 
25 5 5 14 26 61 84 89 89 
89 84 79 75 77 81 89 99 111 
115 111 104 95 89 83 80 77 80 
94 111 116 113 107 95 87 92 102 
109 106 102 96 93 99 104 109 110 
110 109 102 97 94 93 95 99 101 
99 91 81 78 73 65 5 5 65 
58 71 84 88 92 98 99 96 96 
95 94 96 96 99 106 109 111 113 
113 115 117 117 112 114 116 117 117 
117 118 116 115 111 100 95 96 103 
110 109 96 86 82 82 78 75 73 
75 77 81 80 73 57 27 5 5 
14 31 64 85 90 91 91 88 85 
81 78 81 89 101 112 112 108 100 
92 86 82 79 78 79 93 110 116 
115 108 95 88 88 95 104 104 96 
89 89 96 103 111 112 109 104 98 
93 89 89 90 90 93 94 91 82 
79 76 68 5 5 5 63 5 5 
64 50 69 85 85 88 89 88 87 
86 85 83 86 87 89 94 102 110 
113 113 114 116 117 116 117 116 118 
118 118 117 115 114 110 100 95 96 
102 109 109 97 87 82 79 75 74 
77 83 85 89 87 85 73 35 5 
5 15 36 69 87 92 94 96 93 
90 88 85 89 99 110 113 109 103 
94 86 83 80 76 78 83 98 113 
115 115 110 95 84 82 87 96 96 
90 85 87 95 105 113 112 109 102 
92 85 82 84 84 84 87 88 85 
83 81 78 73 5 5 62 5 67 
64 54 71 84 84 86 86 84 81 
79 80 81 81 82 84 87 95 108 
113 113 114 116 116 117 116 116 118 
117 116 116 115 114 110 99 94 95 
101 110 113 100 90 84 79 76 77 
81 86 88 91 92 91 81 43 5 
5 16 44 76 88 92 100 106 104 
101 98 99 103 110 114 110 101 94 
88 83 80 77 75 79 86 104 114 
116 116 110 95 83 80 82 86 87 
85 83 87 97 108 112 111 110 101 
87 80 80 82 82 81 83 83 80 
82 79 76 75 5 5 57 70 69 
62 70 81 83 84 83 81 75 72 
73 74 77 81 82 83 90 102 112 
113 112 115 115 116 117 117 116 116 
116 116 116 116 109 98 92 94 99 
109 115 104 91 85 79 76 78 85 
90 91 95 95 91 82 47 5 5 
17 47 82 91 94 103 115 116 115 
114 115 116 116 114 107 99 90 84 
80 77 74 78 82 91 108 115 114 
115 113 97 82 78 77 80 82 82 
82 87 100 112 111 112 110 97 82 
77 78 80 79 80 81 79 76 78 
75 71 72 5 74 5 5 5 43 
5 62 5 81 5 86 5 84 5 
82 5 81 5 69 5 52 5 37 
5 34 5 45 5 68 5 81 5 
81 5 82 5 85 5 76 5 55 
5 36 5 5 58 73 76 74 74 
76 78 81 79 78 75 72 68 69 
74 78 79 81 85 99 111 112 113 
115 115 115 117 117 115 117 115 115 
116 117 109 97 90 91 98 106 112 
109 94 84 80 79 80 86 90 93 
96 94 92 85 50 5 5 18 49 
83 90 95 103 115 119 120 120 120 
120 119 114 104 95 88 82 78 75 
75 80 83 91 106 113 114 115 115 
104 87 77 73 76 79 81 83 92 
107 114 113 112 108 94 80 78 75 
75 76 77 79 79 76 77 75 69 
72 78 5 67 5 5 5 43 52 
79 96 94 90 91 88 80 60 39 
36 55 77 86 88 89 94 95 75 
46 5 46 5 5 5 43 60 74 
80 82 80 78 77 78 76 74 72 
70 67 69 74 76 77 79 82 97 
111 113 112 114 116 116 117 116 116 
117 116 117 117 116 108 94 88 91 
98 106 112 114 102 87 82 82 83 
88 91 99 101 95 91 85 52 5 
5 19 49 82 90 95 103 109 109 
108 111 114 117 118 112 105 97 90 
85 82 78 77 78 82 88 100 111 
114 115 116 109 92 81 69 70 77 
82 87 103 114 114 112 109 108 94 
80 79 74 74 79 78 79 78 76 
77 77 71 70 73 66 5 5 47 
66 94 97 92 92 93 91 88 75 
52 47 74 88 90 93 93 93 98 
91 54 37 5 5 5 35 45 60 
74 81 82 81 79 77 76 74 74 
73 69 69 72 77 76 75 78 81 