# vtk DataFile Version 4.0
vtk output
ASCII
DATASET POLYDATA
POINTS 19006 float
17.5288 -103.197 -4.927 16.83 -103.881 -4.89276 16.83 -103.197 -4.927 
15.84 -103.881 -4.89276 15.84 -103.197 -4.927 14.85 -103.935 -4.89005 
14.85 -103.197 -4.927 13.86 -103.945 -4.88952 13.86 -103.197 -4.927 
12.87 -103.979 -4.88783 12.87 -103.197 -4.927 11.88 -103.993 -4.88716 
11.88 -103.197 -4.927 10.89 -104.004 -4.88658 10.89 -103.197 -4.927 
9.9 -104.014 -4.88608 9.9 -103.197 -4.927 8.91 -104.004 -4.88658 
8.91 -103.197 -4.927 8.085 -103.197 -4.927 22.44 -102.228 -4.9755 
21.78 -102.874 -4.94317 21.78 -102.228 -4.9755 20.79 -102.894 -4.94216 
20.79 -102.228 -4.9755 19.8 -102.912 -4.94126 19.8 -102.228 -4.9755 
18.81 -102.955 -4.93913 18.81 -102.228 -4.9755 17.82 -102.986 -4.93754 
17.82 -102.228 -4.9755 16.83 -102.228 -4.9755 15.84 -102.228 -4.9755 
14.85 -102.228 -4.9755 13.86 -102.228 -4.9755 12.87 -102.228 -4.9755 
11.88 -102.228 -4.9755 10.89 -102.228 -4.9755 9.9 -102.228 -4.9755 
8.91 -102.228 -4.9755 7.92 -103.035 -4.93508 7.92 -102.228 -4.9755 
6.93 -103.01 -4.93633 6.93 -102.228 -4.9755 5.94 -102.986 -4.93754 
5.94 -102.228 -4.9755 5.16522 -102.228 -4.9755 23.485 -101.259 -5.024 
22.77 -101.959 -4.98897 22.77 -101.259 -5.024 21.78 -101.259 -5.024 
20.79 -101.259 -5.024 19.8 -101.259 -5.024 18.81 -101.259 -5.024 
17.82 -101.259 -5.024 16.83 -101.259 -5.024 15.84 -101.259 -5.024 
14.85 -101.259 -5.024 13.86 -101.259 -5.024 12.87 -101.259 -5.024 
11.88 -101.259 -5.024 10.89 -101.259 -5.024 9.9 -101.259 -5.024 
8.91 -101.259 -5.024 7.92 -101.259 -5.024 6.93 -101.259 -5.024 
5.94 -101.259 -5.024 4.95 -101.997 -4.98705 4.95 -101.259 -5.024 
3.96 -102.017 -4.98604 3.96 -101.259 -5.024 3.18522 -101.259 -5.024 
-16.9847 -101.259 -5.024 -17.82 -102.077 -4.98308 -17.82 -101.259 -5.024 
-18.81 -102.081 -4.98285 -18.81 -101.259 -5.024 -19.8 -102.042 -4.98483 
-19.8 -101.259 -5.024 -20.79 -101.986 -4.98763 -20.79 -101.259 -5.024 
-21.78 -101.943 -4.98976 -21.78 -101.259 -5.024 -22.4788 -101.259 -5.024 
25.4306 -100.29 -5.0725 24.75 -100.956 -5.03916 24.75 -100.29 -5.0725 
23.76 -101.057 -5.0341 23.76 -100.29 -5.0725 22.77 -100.29 -5.0725 
21.78 -100.29 -5.0725 20.79 -100.29 -5.0725 19.8 -100.29 -5.0725 
18.81 -100.29 -5.0725 17.82 -100.29 -5.0725 16.83 -100.29 -5.0725 
15.84 -100.29 -5.0725 14.85 -100.29 -5.0725 13.86 -100.29 -5.0725 
12.87 -100.29 -5.0725 11.88 -100.29 -5.0725 10.89 -100.29 -5.0725 
9.9 -100.29 -5.0725 8.91 -100.29 -5.0725 7.92 -100.29 -5.0725 
6.93 -100.29 -5.0725 5.94 -100.29 -5.0725 4.95 -100.29 -5.0725 
3.96 -100.29 -5.0725 3.135 -100.29 -5.0725 -14.949 -100.29 -5.0725 
-15.84 -101.162 -5.02885 -15.84 -100.29 -5.0725 -16.83 -101.188 -5.02757 
-16.83 -100.29 -5.0725 -17.82 -100.29 -5.0725 -18.81 -100.29 -5.0725 
-19.8 -100.29 -5.0725 -20.79 -100.29 -5.0725 -21.78 -100.29 -5.0725 
-22.77 -101.132 -5.03038 -22.77 -100.29 -5.0725 -23.76 -101.092 -5.03236 
-23.76 -100.29 -5.0725 -24.75 -101.017 -5.03613 -24.75 -100.29 -5.0725 
-25.4925 -100.29 -5.0725 26.4695 -99.3216 -5.121 25.74 -100.035 -5.08526 
25.74 -99.3216 -5.121 24.75 -99.3216 -5.121 23.76 -99.3216 -5.121 
22.77 -99.3216 -5.121 21.78 -99.3216 -5.121 20.79 -99.3216 -5.121 
19.8 -99.3216 -5.121 18.81 -99.3216 -5.121 17.82 -99.3216 -5.121 
16.83 -99.3216 -5.121 15.84 -99.3216 -5.121 14.85 -99.3216 -5.121 
13.86 -99.3216 -5.121 12.87 -99.3216 -5.121 11.88 -99.3216 -5.121 
10.89 -99.3216 -5.121 9.9 -99.3216 -5.121 8.91 -99.3216 -5.121 
7.92 -99.3216 -5.121 6.93 -99.3216 -5.121 5.94 -99.3216 -5.121 
4.95 -99.3216 -5.121 3.96 -99.3216 -5.121 3.07532 -99.3216 -5.121 
-13.0156 -99.3216 -5.121 -13.86 -100.148 -5.07963 -13.86 -99.3216 -5.121 
-14.7044 -99.3216 -5.121 -14.9082 -99.3216 -5.121 -15.84 -99.3216 -5.121 
-16.83 -99.3216 -5.121 -17.82 -99.3216 -5.121 -18.81 -99.3216 -5.121 
-19.8 -99.3216 -5.121 -20.79 -99.3216 -5.121 -21.78 -99.3216 -5.121 
-22.77 -99.3216 -5.121 -23.76 -99.3216 -5.121 -24.75 -99.3216 -5.121 
-25.74 -100.134 -5.08032 -25.74 -99.3216 -5.121 -26.73 -100.005 -5.08676 
-26.73 -99.3216 -5.121 -27.4288 -99.3216 -5.121 28.4188 -98.3528 -5.1695 
27.72 -99.0367 -5.13526 27.72 -98.3528 -5.1695 26.73 -99.1353 -5.13033 
26.73 -98.3528 -5.1695 25.74 -98.3528 -5.1695 24.75 -98.3528 -5.1695 
23.76 -98.3528 -5.1695 22.77 -98.3528 -5.1695 21.78 -98.3528 -5.1695 
20.79 -98.3528 -5.1695 19.8 -98.3528 -5.1695 18.81 -98.3528 -5.1695 
17.82 -98.3528 -5.1695 16.83 -98.3528 -5.1695 15.84 -98.3528 -5.1695 
14.85 -98.3528 -5.1695 13.86 -98.3528 -5.1695 12.87 -98.3528 -5.1695 
11.88 -98.3528 -5.1695 10.89 -98.3528 -5.1695 9.9 -98.3528 -5.1695 
8.91 -98.3528 -5.1695 7.92 -98.3528 -5.1695 6.93 -98.3528 -5.1695 
5.94 -98.3528 -5.1695 4.95 -98.3528 -5.1695 3.96 -98.3528 -5.1695 
3.0525 -98.3528 -5.1695 -11.9979 -98.3528 -5.1695 -12.87 -99.2063 -5.12677 
-12.87 -98.3528 -5.1695 -13.86 -98.3528 -5.1695 -14.85 -99.2625 -5.12396 
-14.85 -98.3528 -5.1695 -15.84 -98.3528 -5.1695 -16.83 -98.3528 -5.1695 
-17.82 -98.3528 -5.1695 -18.81 -98.3528 -5.1695 -19.8 -98.3528 -5.1695 
-20.79 -98.3528 -5.1695 -21.78 -98.3528 -5.1695 -22.77 -98.3528 -5.1695 
-23.76 -98.3528 -5.1695 -24.75 -98.3528 -5.1695 -25.74 -98.3528 -5.1695 
-26.73 -98.3528 -5.1695 -27.72 -99.0794 -5.13312 -27.72 -98.3528 -5.1695 
-28.71 -98.9987 -5.13717 -28.71 -98.3528 -5.1695 -29.37 -98.3528 -5.1695 
29.4848 -97.384 -5.218 28.71 -98.1422 -5.18004 28.71 -97.384 -5.218 
27.72 -97.384 -5.218 26.73 -97.384 -5.218 25.74 -97.384 -5.218 
24.75 -97.384 -5.218 23.76 -97.384 -5.218 22.77 -97.384 -5.218 
21.78 -97.384 -5.218 20.79 -97.384 -5.218 19.8 -97.384 -5.218 
18.81 -97.384 -5.218 17.82 -97.384 -5.218 16.83 -97.384 -5.218 
15.84 -97.384 -5.218 14.85 -97.384 -5.218 13.86 -97.384 -5.218 
12.87 -97.384 -5.218 11.88 -97.384 -5.218 10.89 -97.384 -5.218 
9.9 -97.384 -5.218 8.91 -97.384 -5.218 7.92 -97.384 -5.218 
6.93 -97.384 -5.218 5.94 -97.384 -5.218 4.95 -97.384 -5.218 
3.96 -97.384 -5.218 2.97 -98.2747 -5.17341 2.97 -97.384 -5.218 
1.98 -98.2475 -5.17477 1.98 -97.384 -5.218 1.09761 -97.384 -5.218 
-11.9497 -97.384 -5.218 -12.87 -97.384 -5.218 -13.86 -97.384 -5.218 
-14.85 -97.384 -5.218 -15.84 -97.384 -5.218 -16.83 -97.384 -5.218 
-17.82 -97.384 -5.218 -18.81 -97.384 -5.218 -19.8 -97.384 -5.218 
-20.79 -97.384 -5.218 -21.78 -97.384 -5.218 -22.77 -97.384 -5.218 
-23.76 -97.384 -5.218 -24.75 -97.384 -5.218 -25.74 -97.384 -5.218 
-26.73 -97.384 -5.218 -27.72 -97.384 -5.218 -28.71 -97.384 -5.218 
-29.7 -98.0979 -5.18226 -29.7 -97.384 -5.218 -30.69 -98.0299 -5.18567 
-30.69 -97.384 -5.218 -31.35 -97.384 -5.218 30.5132 -96.4152 -5.2665 
29.7 -97.211 -5.22666 29.7 -96.4152 -5.2665 28.71 -96.4152 -5.2665 
27.72 -96.4152 -5.2665 26.73 -96.4152 -5.2665 25.74 -96.4152 -5.2665 
24.75 -96.4152 -5.2665 23.76 -96.4152 -5.2665 22.77 -96.4152 -5.2665 
21.78 -96.4152 -5.2665 20.79 -96.4152 -5.2665 19.8 -96.4152 -5.2665 
18.81 -96.4152 -5.2665 17.82 -96.4152 -5.2665 16.83 -96.4152 -5.2665 
15.84 -96.4152 -5.2665 14.85 -96.4152 -5.2665 13.86 -96.4152 -5.2665 
12.87 -96.4152 -5.2665 11.88 -96.4152 -5.2665 10.89 -96.4152 -5.2665 
9.9 -96.4152 -5.2665 8.91 -96.4152 -5.2665 7.92 -96.4152 -5.2665 
6.93 -96.4152 -5.2665 5.94 -96.4152 -5.2665 4.95 -96.4152 -5.2665 
3.96 -96.4152 -5.2665 2.97 -96.4152 -5.2665 1.98 -96.4152 -5.2665 
0.99 -97.2959 -5.22241 0.99 -96.4152 -5.2665 0.09 -96.4152 -5.2665 
-2.07 -96.4152 -5.2665 -2.97 -97.2959 -5.22241 -2.97 -96.4152 -5.2665 
-3.87 -96.4152 -5.2665 -11.9497 -96.4152 -5.2665 -12.87 -96.4152 -5.2665 
-13.86 -96.4152 -5.2665 -14.85 -96.4152 -5.2665 -15.84 -96.4152 -5.2665 
-16.83 -96.4152 -5.2665 -17.82 -96.4152 -5.2665 -18.81 -96.4152 -5.2665 
-19.8 -96.4152 -5.2665 -20.79 -96.4152 -5.2665 -21.78 -96.4152 -5.2665 
-22.77 -96.4152 -5.2665 -23.76 -96.4152 -5.2665 -24.75 -96.4152 -5.2665 
-25.74 -96.4152 -5.2665 -26.73 -96.4152 -5.2665 -27.72 -96.4152 -5.2665 
-28.71 -96.4152 -5.2665 -29.7 -96.4152 -5.2665 -30.69 -96.4152 -5.2665 
-31.68 -97.1418 -5.23012 -31.68 -96.4152 -5.2665 -32.67 -97.0813 -5.23316 
-32.67 -96.4152 -5.2665 -33.3506 -96.4152 -5.2665 31.5253 -95.4464 -5.315 
30.69 -96.2638 -5.27408 30.69 -95.4464 -5.315 29.7 -95.4464 -5.315 
28.71 -95.4464 -5.315 27.72 -95.4464 -5.315 26.73 -95.4464 -5.315 
25.74 -95.4464 -5.315 24.75 -95.4464 -5.315 23.76 -95.4464 -5.315 
22.77 -95.4464 -5.315 21.78 -95.4464 -5.315 20.79 -95.4464 -5.315 
19.8 -95.4464 -5.315 18.81 -95.4464 -5.315 17.82 -95.4464 -5.315 
16.83 -95.4464 -5.315 15.84 -95.4464 -5.315 14.85 -95.4464 -5.315 
13.86 -95.4464 -5.315 12.87 -95.4464 -5.315 11.88 -95.4464 -5.315 
10.89 -95.4464 -5.315 9.9 -95.4464 -5.315 8.91 -95.4464 -5.315 
7.92 -95.4464 -5.315 6.93 -95.4464 -5.315 5.94 -95.4464 -5.315 
4.95 -95.4464 -5.315 3.96 -95.4464 -5.315 2.97 -95.4464 -5.315 
1.98 -95.4464 -5.315 0.99 -95.4464 -5.315 0 -96.3488 -5.26982 
0 -95.4464 -5.315 -0.922192 -95.4464 -5.315 -1.06071 -95.4464 -5.315 
-1.98 -96.346 -5.26996 -1.98 -95.4464 -5.315 -2.97 -95.4464 -5.315 
-3.88826 -95.4464 -5.315 -11.9517 -95.4464 -5.315 -12.87 -95.4464 -5.315 
-13.86 -95.4464 -5.315 -14.85 -95.4464 -5.315 -15.84 -95.4464 -5.315 
-16.83 -95.4464 -5.315 -17.82 -95.4464 -5.315 -18.81 -95.4464 -5.315 
-19.8 -95.4464 -5.315 -20.79 -95.4464 -5.315 -21.78 -95.4464 -5.315 
-22.77 -95.4464 -5.315 -23.76 -95.4464 -5.315 -24.75 -95.4464 -5.315 
-25.74 -95.4464 -5.315 -26.73 -95.4464 -5.315 -27.72 -95.4464 -5.315 
-28.71 -95.4464 -5.315 -29.7 -95.4464 -5.315 -30.69 -95.4464 -5.315 
-31.68 -95.4464 -5.315 -32.67 -95.4464 -5.315 -33.66 -96.173 -5.27863 
-33.66 -95.4464 -5.315 -34.4025 -95.4464 -5.315 32.5103 -94.4776 -5.3635 
31.68 -95.2901 -5.32282 31.68 -94.4776 -5.3635 30.69 -94.4776 -5.3635 
29.7 -94.4776 -5.3635 28.71 -94.4776 -5.3635 27.72 -94.4776 -5.3635 
26.73 -94.4776 -5.3635 25.74 -94.4776 -5.3635 24.75 -94.4776 -5.3635 
23.76 -94.4776 -5.3635 22.77 -94.4776 -5.3635 21.78 -94.4776 -5.3635 
20.79 -94.4776 -5.3635 19.8 -94.4776 -5.3635 18.81 -94.4776 -5.3635 
17.82 -94.4776 -5.3635 16.83 -94.4776 -5.3635 15.84 -94.4776 -5.3635 
[...]
POINT_DATA 19006
SCALARS scalars float
LOOKUP_TABLE default
5 5 17 5 17 5 21 5 22 
5 26 5 28 5 30 5 32 5 
30 5 5 5 15 5 16 5 17 
5 20 5 23 27 30 33 36 38 
38 37 37 33 5 30 5 26 5 
23 5 5 5 18 24 34 45 55 
63 69 73 74 76 77 75 73 70 
61 49 39 26 5 21 5 23 5 
5 5 32 5 33 5 26 5 20 
5 17 5 5 5 16 5 24 42 
61 76 87 92 93 97 98 98 99 
101 100 98 97 93 79 64 50 37 
30 5 5 5 50 5 68 76 78 
64 47 42 5 38 5 29 5 20 
5 5 5 19 34 60 82 92 97 
100 102 106 106 105 106 106 106 108 
106 107 106 98 84 72 58 47 5 
5 5 34 5 5 85 95 97 99 
91 76 73 77 71 52 5 31 5 
17 5 5 5 17 5 26 41 69 
89 98 102 105 108 110 111 111 109 
109 108 108 110 110 111 112 108 97 
84 71 60 5 5 5 42 63 5 
82 94 98 101 103 100 92 92 97 
99 91 72 42 5 20 5 15 5 
5 5 23 39 61 74 88 98 105 
110 112 111 112 112 111 109 108 109 
109 110 111 113 114 114 107 98 83 
70 5 62 5 46 5 5 71 80 
90 97 102 107 108 102 97 103 107 
105 101 95 73 45 28 5 19 5 
15 5 5 5 28 53 78 89 91 
98 105 111 112 112 112 112 112 110 
107 109 111 112 111 109 111 112 113 
113 109 99 83 68 64 5 55 5 
5 5 55 5 5 71 84 93 97 
103 109 110 106 106 108 112 110 103 
94 80 67 59 49 32 5 20 5 
16 5 5 5 32 62 85 94 97 
101 107 111 112 112 111 108 110 111 
109 109 112 112 110 109 109 109 109 
108 108 107 100 86 72 74 77 5 
73 5 5 5 70 69 5 5 69 
86 96 100 106 111 112 112 114 110 
110 111 105 95 87 85 83 83 72 
54 32 5 20 5 5 5 31 63 
86 94 98 103 107 111 112 109 108 
109 108 109 110 109 109 110 108 104 
104 107 109 106 101 98 94 83 72 
65 73 83 84 5 80 76 75 5 
5 5 58 66 85 95 102 110 114 
114 114 115 110 109 112 112 104 98 
99 97 97 93 82 66 49 5 27 
5 17 5 5 5 17 5 30 60 
85 94 98 105 111 112 113 113 110 
107 107 107 107 108 108 108 108 102 
95 95 101 106 105 97 90 81 70 
63 62 69 77 82 82 78 71 5 
5 5 60 59 64 82 95 102 105 
108 108 105 101 99 102 107 114 115 
109 109 108 106 103 97 84 74 62 
38 5 20 5 14 5 5 5 19 
32 55 79 93 98 104 110 114 116 
115 114 112 109 108 109 107 106 103 
103 99 90 85 87 97 106 106 97 
90 83 80 83 84 82 75 70 70 
75 61 5 5 59 58 63 76 89 
97 100 100 99 94 85 78 82 97 
109 116 114 112 112 108 105 103 97 
88 82 68 43 19 5 15 5 5 
5 15 5 5 5 22 40 54 66 
85 97 99 105 110 114 116 113 112 
112 111 109 110 109 107 103 101 92 
78 75 87 96 106 107 102 95 92 
92 93 92 89 82 68 65 70 62 
5 5 5 5 66 73 79 87 91 
91 90 83 75 75 83 97 108 115 
113 108 106 104 103 101 96 88 82 
74 62 40 22 5 15 5 5 16 
5 27 44 59 67 79 90 95 99 
103 109 114 114 110 108 106 108 110 
111 111 107 105 100 89 71 67 87 
95 102 105 104 100 97 94 93 92 
88 83 73 66 58 54 5 5 5 
63 5 66 71 77 73 69 68 73 
82 87 89 92 98 104 110 111 107 
100 94 90 91 90 87 82 78 70 
62 56 41 22 5 17 5 5 5 
16 5 13 5 5 33 49 62 73 
81 89 93 96 99 106 111 114 113 
106 99 95 95 100 107 110 109 106 
99 92 78 63 79 90 95 102 103 
98 98 94 93 91 88 81 71 62 
54 48 5 5 5 68 64 68 72 
71 67 62 61 70 82 92 97 102 
105 110 112 106 97 85 76 78 85 
86 89 85 83 79 70 63 58 44 
26 5 15 5 5 5 17 5 34 
53 64 80 92 95 98 100 103 106 
109 112 113 113 107 98 88 83 86 
95 103 109 110 103 94 88 71 67 
81 88 94 101 99 95 93 91 88 
83 76 67 60 54 51 5 5 70 
68 70 69 63 59 56 52 59 77 
89 98 104 108 109 106 99 85 67 
69 84 92 94 95 93 90 91 90 
84 78 71 55 32 5 17 5 5 
33 51 65 82 93 97 103 106 107 
107 107 111 112 114 113 111 103 92 
83 78 80 90 101 108 107 99 91 
85 70 69 82 91 98 101 95 93 
87 80 73 65 61 56 52 54 5 
5 5 69 5 73 71 72 71 64 
62 70 72 64 56 64 79 89 98 
103 104 99 91 74 68 82 92 96 
102 101 98 97 95 94 95 90 82 
75 60 35 5 17 5 5 5 13 
5 19 5 37 50 56 76 94 97 
103 109 110 109 107 106 108 110 110 
110 110 107 99 90 84 76 79 91 
101 108 106 96 90 80 70 76 89 
96 98 95 90 82 71 66 61 58 
55 56 62 5 5 5 71 75 78 
77 77 72 66 74 90 95 92 79 
68 72 80 89 93 93 89 82 74 
81 92 95 102 108 106 103 99 97 
94 94 93 86 76 69 57 33 5 
5 22 41 55 56 56 74 94 97 
105 112 110 110 105 100 98 99 99 
102 105 106 105 98 91 83 77 82 
94 101 106 102 93 85 75 75 87 
94 98 94 84 74 66 64 62 55 
52 60 67 5 5 76 82 84 81 
74 71 74 87 99 98 97 96 89 
81 80 76 73 77 82 81 86 94 
98 102 109 111 108 100 94 92 93 
92 90 87 75 65 63 51 5 27 
5 5 5 5 63 58 48 63 89 
95 102 110 111 107 102 97 90 87 
89 91 95 100 105 104 95 90 80 
76 85 95 102 104 97 91 82 76 
84 91 90 87 78 69 66 64 61 
52 47 60 70 5 5 5 70 5 
74 78 84 85 76 72 77 87 93 
98 103 103 102 100 98 92 80 69 
72 85 90 97 103 107 110 111 114 
109 95 89 85 84 86 86 84 76 
68 64 64 50 5 25 5 5 5 
42 5 63 5 64 62 63 61 63 
78 89 96 102 107 107 104 100 94 
91 89 87 89 94 98 104 99 91 
82 69 73 87 92 98 99 94 88 
77 75 85 88 84 79 75 68 64 
59 53 51 57 68 5 69 72 76 
82 83 77 74 83 89 94 97 101 
107 109 109 105 99 94 87 79 81 
91 99 104 110 113 113 111 115 109 
95 86 82 81 82 83 79 77 79 
79 78 72 52 5 23 5 5 5 
5 60 66 74 80 77 73 79 87 
93 98 103 104 102 99 97 96 95 
96 95 100 104 97 89 82 59 54 
72 84 92 95 95 90 81 70 73 
83 84 81 76 70 65 60 58 59 
58 63 68 72 77 81 76 72 80 
91 96 98 102 106 107 108 108 107 
102 93 83 79 86 95 102 108 110 
113 112 110 115 113 103 95 89 87 
86 83 82 82 85 91 92 91 80 
50 5 20 5 5 5 57 5 61 
73 83 88 89 87 81 75 77 88 
92 96 99 101 99 100 104 105 104 
104 109 104 92 86 75 59 59 66 
74 83 89 91 89 87 78 69 71 
76 75 72 68 67 63 59 62 64 
62 62 68 81 82 76 77 87 94 
99 101 102 100 100 100 101 99 92 
83 78 81 90 98 104 109 111 112 
111 108 111 115 113 107 101 96 93 
91 89 90 93 96 95 92 91 76 
39 5 5 5 16 5 31 5 47 
56 71 87 91 93 93 91 89 78 
69 72 83 89 91 93 97 101 107 
110 109 108 104 97 89 82 73 74 
82 81 75 75 79 83 85 86 84 
73 64 65 67 65 64 64 63 61 
61 66 58 52 66 80 79 77 82 
92 95 98 97 92 87 86 88 93 
93 88 80 79 86 95 101 108 111 
112 108 105 102 104 110 113 112 108 
105 102 100 98 99 101 104 101 96 
93 88 61 5 28 5 5 5 17 
28 44 47 55 77 89 91 95 97 
95 89 83 71 60 66 80 84 87 
93 101 110 111 109 103 94 88 82 
74 76 85 90 90 86 81 76 71 
74 78 80 79 70 59 56 55 59 
64 67 68 60 54 46 45 65 80 
76 76 84 88 91 90 82 76 72 
71 76 81 82 74 71 78 91 98 
102 110 113 111 106 101 99 98 101 
106 110 111 110 109 108 105 104 107 
107 105 101 93 91 78 48 5 5 
5 50 59 54 61 78 89 94 100 
104 100 91 84 79 69 62 72 80 
85 90 103 111 112 108 96 87 78 
69 75 84 91 95 94 91 87 82 
72 67 69 75 81 80 70 53 46 
55 64 68 66 52 45 46 47 62 
76 72 74 81 82 82 77 74 77 
80 82 85 86 80 66 60 72 92 
94 101 109 113 110 104 97 91 89 
94 98 101 104 108 111 111 110 109 
110 109 108 103 92 90 85 68 5 
5 5 20 5 39 5 60 73 74 
68 64 74 87 92 99 107 106 97 
90 85 82 76 75 81 87 97 109 
114 109 99 89 79 66 70 86 89 
93 96 95 94 90 84 81 75 70 
74 78 5 5 5 79 5 5 5 
53 55 5 5 5 66 59 5 5 
5 43 48 52 5 5 5 69 65 
67 74 74 73 73 78 87 91 95 
95 95 93 79 63 65 84 88 95 
102 109 110 104 95 88 84 85 88 
91 95 100 102 105 107 108 107 108 
111 106 96 90 87 78 5 49 5 
5 43 67 80 84 83 78 66 68 
80 87 95 105 107 104 99 93 90 
87 88 93 97 105 111 111 104 91 
85 74 64 80 91 92 93 92 90 
92 90 83 79 77 77 77 5 5 
5 5 5 5 60 63 5 5 5 
40 45 5 52 59 62 64 66 65 
69 77 84 91 94 97 100 96 94 
90 76 60 69 84 88 93 102 111 
110 99 91 84 83 82 83 84 87 
92 97 97 98 102 107 112 107 99 
91 87 81 51 5 5 5 21 5 
46 67 79 85 87 87 82 71 67 
76 86 91 100 109 109 107 105 102 
98 99 103 108 110 108 105 96 87 
82 73 76 90 91 92 86 81 84 
86 83 79 72 67 71 5 5 5 
5 66 5 5 5 5 5 5 68 
66 66 68 73 80 85 91 97 99 
101 99 97 93 84 64 68 85 90 
93 100 109 113 108 98 92 89 85 
85 81 77 76 80 86 92 100 107 
109 106 98 90 88 81 52 5 5 
5 20 45 72 80 84 88 89 88 
86 78 68 69 83 88 94 105 111 
110 109 109 109 109 110 112 111 107 
99 90 85 76 70 83 88 87 86 
76 67 71 76 76 72 66 61 5 
5 5 68 5 5 5 5 70 71 
74 77 81 87 91 95 99 103 101 
96 89 71 76 92 96 99 102 109 
113 112 107 103 98 92 88 84 77 
66 70 82 90 101 110 108 105 97 
89 88 79 49 5 5 38 69 82 
85 89 92 95 91 87 83 75 65 
74 85 91 100 110 112 109 108 110 
111 111 110 108 105 97 88 84 74 
72 86 85 82 81 77 68 62 66 
70 69 73 5 5 5 5 5 72 
75 74 77 84 88 95 98 101 101 
98 92 77 81 94 98 103 107 113 
116 115 112 113 109 102 93 89 81 
66 74 87 94 105 112 109 101 94 
89 85 72 42 5 5 5 32 59 
80 85 87 94 100 103 95 89 86 
81 74 72 82 90 97 106 110 108 
105 106 108 108 107 107 105 98 88 
84 76 77 89 87 83 82 80 76 
70 63 61 5 5 5 5 70 68 
68 72 78 82 88 93 97 102 100 
91 79 83 92 96 106 113 114 116 
118 115 113 113 109 97 91 84 72 
80 90 98 109 113 107 97 89 87 
78 61 39 5 5 47 67 81 85 
87 96 105 108 103 94 86 82 81 
75 81 88 95 106 110 109 105 105 
105 105 104 106 106 99 89 86 79 
77 85 86 81 80 81 80 77 73 
5 5 5 5 64 61 62 65 70 
80 90 95 99 98 90 77 83 94 
97 104 108 108 109 113 115 115 114 
111 98 90 83 75 82 90 99 110 
112 105 95 86 85 72 55 43 5 
29 5 15 5 5 5 33 50 60 
78 84 84 90 100 107 102 93 87 
84 82 78 81 86 92 102 109 110 
109 107 104 106 108 108 106 100 90 
87 81 74 82 86 79 74 78 81 
77 73 5 5 5 60 60 64 71 
80 89 92 96 98 91 78 78 91 
94 97 98 98 101 103 108 115 116 
107 95 88 79 76 85 92 100 109 
111 101 93 87 81 65 54 53 48 
29 5 5 5 23 40 48 58 76 
80 82 86 94 104 100 90 85 84 
82 80 81 87 94 101 108 110 110 
111 108 107 109 108 106 98 90 86 
78 75 84 86 83 77 73 74 70 
5 5 5 53 56 62 71 78 83 
91 94 93 90 75 64 80 88 88 
87 85 86 92 101 112 116 106 92 
84 78 81 88 94 102 109 108 99 
91 87 77 65 65 72 72 56 5 
30 5 14 5 5 5 19 37 49 
49 66 79 81 84 88 97 104 99 
90 82 80 77 78 82 89 97 103 
109 107 108 112 112 108 107 103 99 
92 87 84 75 79 86 86 84 78 
69 67 66 5 5 5 55 64 69 
77 81 86 90 91 87 70 55 69 
81 81 78 76 78 84 95 110 115 
105 91 81 76 83 87 93 103 110 
107 97 88 83 74 72 80 85 86 
78 59 31 5 5 5 15 34 60 
65 58 75 84 86 91 96 103 105 
96 89 83 78 75 75 81 90 100 
106 110 109 109 111 113 109 99 93 
91 88 85 79 72 80 86 87 85 
79 71 71 5 5 5 5 76 75 
78 82 84 87 85 76 68 73 84 
88 87 87 85 84 88 99 112 115 
104 90 79 76 84 89 96 104 109 
105 95 89 84 77 78 86 90 90 
86 80 62 5 36 5 17 5 5 
24 49 68 66 67 80 85 92 98 
103 106 102 92 86 81 77 78 79 
83 93 102 109 110 110 111 111 112 
106 94 88 84 82 79 74 78 85 
87 86 84 80 72 5 5 5 5 
81 81 82 80 80 74 67 75 88 
92 94 94 94 94 93 99 106 114 
114 101 88 76 76 85 90 94 103 
108 103 95 88 82 77 82 87 92 
93 90 86 82 67 37 5 5 5 
14 5 22 42 60 67 69 76 82 
87 96 104 107 105 97 88 83 79 
77 80 83 88 95 103 111 109 105 
107 109 110 103 91 85 80 75 71 
75 84 86 87 86 80 76 73 5 
5 76 74 70 70 68 62 64 85 
94 93 100 100 101 103 104 108 110 
113 112 101 90 78 73 82 88 91 
100 107 105 96 88 80 73 80 87 
93 97 94 88 85 83 70 5 5 
5 14 20 47 67 73 77 80 83 
85 90 100 106 105 100 94 88 81 
79 78 80 85 90 97 105 108 104 
99 100 106 111 107 94 88 84 75 
72 82 88 87 86 85 81 77 76 
5 5 78 70 64 64 58 54 69 
89 92 97 103 106 107 105 105 107 
109 113 114 104 91 81 75 79 85 
89 96 104 105 96 87 79 71 80 
87 97 104 99 91 88 85 83 5 
5 5 14 23 50 76 83 82 83 
84 89 92 97 107 107 102 95 89 
83 79 77 77 79 85 92 101 108 
106 99 94 95 103 111 111 98 89 
85 76 73 83 90 90 87 83 79 
77 75 5 5 5 76 69 66 59 
57 74 90 90 98 105 110 111 109 
107 105 109 111 114 110 97 86 78 
75 81 87 91 99 106 101 91 82 
78 83 91 101 107 102 95 90 87 
85 5 5 23 52 77 83 85 88 
90 91 97 100 104 109 107 100 94 
87 80 75 75 78 80 86 93 103 
108 106 97 90 90 96 106 111 103 
91 87 80 75 81 88 88 86 82 
78 75 70 5 5 77 71 67 63 
63 72 87 89 95 104 112 115 113 
111 108 108 113 114 112 103 91 81 
76 80 85 88 95 103 104 98 90 
88 91 99 106 103 97 92 88 88 
87 5 84 5 5 5 14 5 21 
48 77 82 83 85 91 95 98 104 
106 106 107 108 101 93 87 82 80 
76 76 80 85 91 102 111 109 97 
87 84 89 102 110 106 93 86 83 
77 80 87 87 87 81 74 70 68 
5 5 71 66 64 66 67 70 85 
90 95 102 110 116 116 114 113 111 
112 115 116 109 96 86 81 79 81 
83 86 95 103 103 101 98 101 104 
102 94 88 88 87 87 87 83 5 
73 5 5 5 15 19 42 75 83 
83 86 88 93 96 99 102 103 103 
103 105 100 93 88 85 83 78 75 
77 83 89 97 110 109 98 87 81 
84 95 106 108 97 87 82 74 75 
87 89 85 77 73 71 75 5 5 
5 67 65 69 70 69 83 90 95 
101 106 113 116 115 114 112 111 111 
115 115 105 95 86 81 79 78 80 
86 93 100 101 100 103 100 92 88 
85 81 79 80 79 78 67 5 62 
5 55 5 5 16 34 68 84 84 
88 88 89 91 91 92 94 95 98 
99 99 98 93 87 85 84 79 76 
74 78 87 97 109 109 101 90 82 
82 91 104 110 99 89 83 73 67 
81 87 84 77 75 72 73 5 5 
71 71 75 71 69 82 91 94 100 
105 111 115 114 112 109 111 110 113 
117 114 103 92 84 79 75 76 81 
87 92 94 94 93 90 87 83 75 
67 67 71 73 73 65 61 67 5 
51 5 20 5 5 5 15 27 59 
85 85 87 91 92 89 87 84 85 
86 87 88 91 92 91 87 84 83 
81 80 78 75 78 86 97 108 110 
103 92 84 84 91 103 109 100 91 
85 79 71 78 84 83 77 74 71 
74 5 5 65 70 74 69 68 81 
88 96 101 107 114 115 114 111 106 
107 107 111 114 114 109 100 92 86 
79 77 79 84 86 87 87 86 85 
81 73 61 57 65 72 76 75 71 
66 72 67 34 5 5 5 14 19 
44 77 87 86 95 98 95 92 87 
85 84 83 84 84 86 87 86 84 
82 79 80 81 79 77 79 88 99 
109 110 101 91 85 86 92 103 108 
104 94 87 83 78 76 84 83 77 
75 73 75 5 5 67 68 70 66 
68 82 87 97 107 110 114 116 115 
112 106 104 106 111 113 114 114 108 
96 87 84 81 77 78 80 81 82 
80 73 68 62 60 67 76 79 82 
81 80 79 79 77 53 5 20 5 
5 13 27 58 82 86 89 97 104 
104 101 96 92 86 84 83 81 83 
83 83 82 79 78 80 79 81 82 
85 91 100 110 110 100 90 87 90 
96 104 108 107 98 88 84 80 76 
81 82 78 75 71 72 5 5 5 
63 64 64 68 84 87 95 105 111 
114 116 115 113 110 107 107 110 114 
115 115 112 101 90 85 78 72 72 
74 74 76 72 65 63 67 76 82 
83 84 87 90 87 88 88 86 73 
36 5 5 5 15 16 35 64 82 
87 89 93 101 108 110 108 102 95 
88 85 83 81 80 80 78 73 74 
80 82 84 86 91 97 104 110 109 
100 91 88 91 100 107 109 108 102 
92 86 82 74 77 80 79 74 68 
71 5 5 63 58 63 71 84 87 
96 105 110 115 116 115 116 114 113 
113 114 114 114 116 112 99 90 85 
79 74 75 76 77 76 70 70 75 
81 86 87 89 90 90 93 91 91 
91 89 86 56 5 20 5 5 5 
19 13 23 46 61 75 87 86 89 
93 100 111 114 112 109 101 94 87 
83 81 80 77 71 67 77 84 87 
90 95 102 109 111 110 101 92 90 
93 100 108 108 105 102 94 86 83 
77 78 81 81 76 68 69 5 5 
63 56 60 74 85 87 96 106 109 
112 115 115 115 115 113 113 116 116 
116 114 104 92 86 82 79 81 84 
84 84 82 81 83 86 88 92 94 
98 101 101 101 100 98 93 87 89 
71 30 5 5 17 16 34 53 51 
63 82 84 85 86 92 103 108 113 
115 112 108 100 94 90 85 81 79 
74 75 81 86 91 98 107 112 112 
111 104 96 94 97 102 106 106 105 
101 93 87 86 79 74 80 83 78 
68 66 5 5 55 55 60 74 85 
89 99 107 109 112 115 117 115 117 
116 111 111 116 118 110 95 85 78 
75 79 86 87 90 91 90 92 92 
94 99 103 106 108 109 109 108 104 
99 94 88 88 77 42 5 15 5 
5 5 16 14 24 49 61 58 58 
69 79 84 83 86 90 99 109 112 
113 114 113 110 103 94 86 84 81 
78 80 84 87 95 106 111 112 112 
105 100 98 99 105 106 107 107 103 
94 87 85 79 70 75 80 78 71 
66 5 5 51 54 63 77 86 91 
101 108 109 115 118 117 115 117 119 
113 109 115 117 106 91 81 75 76 
82 86 92 101 102 103 105 105 107 
112 111 113 114 112 107 100 95 91 
89 87 82 71 52 27 5 5 14 
17 45 70 77 76 73 66 66 74 
80 83 85 90 99 108 113 115 115 
116 115 108 95 87 83 82 80 82 
87 94 105 111 110 110 109 107 103 
101 104 107 109 109 102 93 85 81 
70 58 64 74 78 72 65 5 5 
50 53 63 81 89 92 101 107 110 
114 116 115 116 116 115 115 113 117 
117 103 86 78 78 85 89 92 103 
109 109 111 114 114 114 114 113 113 
108 102 95 89 86 84 83 81 77 
70 64 50 5 23 5 5 5 14 
15 36 70 83 84 83 81 77 70 
64 69 78 82 84 87 98 109 114 
115 116 116 115 105 93 84 81 79 
82 87 93 104 111 112 111 111 111 
106 103 104 108 109 109 103 94 85 
79 63 48 54 65 72 71 65 5 
5 49 54 62 80 88 92 100 105 
105 108 112 114 116 115 114 115 114 
116 115 100 85 80 82 86 92 99 
103 106 109 112 114 115 115 115 113 
107 98 90 87 85 81 78 76 77 
80 82 82 77 50 5 20 5 5 
11 23 63 84 86 86 86 82 82 
79 72 65 67 76 81 84 89 100 
111 114 115 116 115 108 96 86 83 
81 82 87 94 104 110 113 111 111 
112 108 106 106 107 108 108 106 96 
87 80 69 58 60 61 62 63 60 
5 5 5 50 52 55 60 77 86 
89 98 103 102 104 107 111 116 117 
116 116 115 116 117 105 88 84 87 
89 94 96 96 99 104 110 114 115 
113 113 106 95 89 86 83 79 75 
75 80 83 85 87 87 86 77 48 
5 5 15 43 80 87 89 90 90 
87 85 83 82 75 67 67 75 81 
83 89 101 110 114 116 115 108 97 
86 81 79 82 87 89 100 106 110 
109 111 112 105 106 109 108 109 109 
106 98 89 82 80 77 76 69 59 
54 51 5 5 57 57 59 59 72 
86 90 98 100 97 95 97 105 115 
117 116 116 116 116 116 111 97 91 
91 93 90 89 90 92 98 107 113 
114 114 106 94 87 84 81 77 74 
76 82 85 86 88 90 90 88 86 
76 5 43 5 5 22 63 84 87 
90 95 93 90 86 85 84 81 78 
71 68 72 78 85 94 106 114 115 
113 108 98 87 80 76 79 86 84 
92 98 104 108 112 115 110 109 112 
111 109 108 104 99 91 84 82 80 
80 78 69 57 49 5 56 5 5 
68 63 61 59 69 83 88 94 96 
93 91 91 98 110 115 116 114 112 
114 116 114 109 102 96 91 85 84 
85 87 98 110 113 113 109 98 89 
85 81 76 74 79 82 85 87 91 
93 94 91 89 85 84 63 5 5 
5 14 35 76 88 91 93 98 98 
91 86 84 83 83 82 78 71 67 
74 84 91 100 110 113 114 111 98 
87 78 69 68 81 85 87 90 95 
103 110 114 113 112 113 110 108 106 
103 99 94 92 89 85 81 81 78 
68 55 57 5 5 65 66 63 60 
71 82 86 91 92 91 90 89 93 
107 115 116 113 109 113 116 115 115 
112 105 96 88 84 84 88 99 109 
114 113 103 91 86 80 76 77 80 
84 85 88 94 99 101 100 96 90 
85 85 74 5 5 18 55 86 90 
93 99 99 98 90 85 82 81 81 
79 77 78 75 76 83 88 96 106 
113 113 112 100 89 80 68 61 74 
80 81 86 90 98 108 113 113 111 
110 109 108 103 101 99 97 97 94 
90 84 82 80 76 63 57 5 5 
52 62 65 62 72 80 85 91 92 
90 86 88 93 106 114 117 116 112 
112 115 115 116 116 113 105 93 85 
86 91 101 112 115 111 97 85 80 
77 79 83 84 86 92 99 106 109 
108 107 102 91 87 85 79 5 46 
5 5 27 71 88 90 94 99 98 
93 88 85 80 79 78 77 79 80 
79 78 84 88 94 104 112 113 113 
105 94 83 75 68 71 76 77 81 
87 95 107 113 112 112 110 110 108 
103 102 101 100 101 100 95 88 84 
81 79 69 57 5 5 53 58 60 
64 76 80 86 90 91 88 85 89 
95 105 113 116 117 115 112 115 117 
116 116 115 108 95 87 87 94 106 
115 115 111 96 86 80 78 83 86 
91 98 107 112 111 109 106 103 100 
92 88 86 77 54 5 5 5 13 
36 79 87 90 95 100 97 89 85 
83 81 79 74 74 80 81 82 81 
83 88 94 103 111 115 115 112 103 
90 84 81 78 79 80 81 86 97 
107 111 111 111 112 112 109 106 103 
103 103 103 101 98 93 87 82 80 
72 60 5 56 5 5 5 61 61 
68 78 82 86 89 90 89 89 94 
100 107 112 113 113 116 116 115 117 
117 116 115 109 99 92 93 104 113 
115 116 113 101 91 86 85 91 96 
104 109 112 111 107 97 90 88 90 
89 88 87 76 59 5 31 5 5 
15 45 84 88 91 95 97 95 88 
83 81 79 78 74 77 83 83 84 
85 88 92 98 106 111 115 115 115 
113 105 97 92 88 86 85 87 92 
101 110 113 112 111 114 112 109 107 
107 107 107 104 102 99 96 90 83 
79 76 64 56 5 5 65 62 73 
81 82 85 90 93 93 94 100 107 
112 114 115 114 114 116 116 116 116 
115 115 110 102 99 105 112 116 115 
115 114 109 103 99 99 105 110 113 
113 110 101 93 84 81 81 83 83 
86 86 74 63 38 5 5 16 53 
85 87 90 94 92 90 86 82 81 
79 77 75 79 83 85 86 87 91 
95 103 111 114 114 115 115 115 115 
112 107 103 101 99 102 106 109 112 
113 113 111 112 113 112 111 111 110 
110 108 106 103 102 93 85 80 80 
69 57 5 5 66 65 80 83 84 
88 93 96 97 101 107 113 115 115 
115 116 114 115 115 115 116 116 119 
117 109 108 114 117 116 115 115 115 
114 112 111 111 114 114 113 107 98 
89 83 79 76 75 80 82 84 84 
76 69 45 5 5 18 56 87 88 
89 93 91 87 83 80 78 79 78 
78 82 85 88 90 93 96 102 110 
114 116 116 116 114 113 116 116 114 
113 112 109 111 112 113 114 113 113 
113 112 112 111 108 108 108 108 107 
106 104 102 96 88 82 82 73 59 
5 55 5 5 5 59 5 63 66 
63 80 84 85 88 92 97 102 107 
111 113 113 109 108 108 111 113 114 
114 115 116 118 118 114 116 118 118 
118 116 114 117 118 117 117 115 116 
114 106 93 84 81 78 72 65 66 
73 76 78 80 75 72 51 5 18 
5 5 19 53 85 89 90 93 91 
86 83 80 77 75 74 78 84 86 
89 94 99 105 110 114 114 114 115 
115 114 114 115 116 115 114 114 111 
112 115 114 113 110 112 113 109 105 
101 98 96 97 97 95 97 97 97 
94 89 83 81 77 64 51 5 5 
60 67 69 61 78 83 83 86 89 
94 99 105 105 105 101 98 94 92 
95 105 113 113 113 114 117 117 118 
118 120 118 118 117 116 115 117 119 
116 116 116 108 92 81 79 77 74 
71 67 66 65 67 69 70 67 69 
54 21 5 5 18 50 84 89 90 
92 90 88 83 77 71 68 70 76 
83 86 93 99 107 112 113 113 113 
113 115 116 116 115 115 116 115 114 
115 113 115 115 114 113 110 113 110 
101 94 89 85 82 84 86 84 84 
85 87 88 87 83 80 78 69 54 
5 5 61 73 73 67 78 81 82 