# vtk DataFile Version 4.0
vtk output
ASCII
DATASET POLYDATA
POINTS 19984 float
18.5006 -103.998 -1.5225 17.82 -104.664 -1.48916 17.82 -103.998 -1.5225 
16.83 -104.697 -1.48747 16.83 -103.998 -1.5225 15.84 -104.711 -1.48676 
15.84 -103.998 -1.5225 14.85 -104.746 -1.48502 14.85 -103.998 -1.5225 
13.86 -104.787 -1.48298 13.86 -103.998 -1.5225 12.87 -104.828 -1.48093 
12.87 -103.998 -1.5225 11.88 -104.835 -1.48055 11.88 -103.998 -1.5225 
10.89 -104.835 -1.48055 10.89 -103.998 -1.5225 9.9 -104.82 -1.48135 
9.9 -103.998 -1.5225 8.91 -104.799 -1.48236 8.91 -103.998 -1.5225 
7.92 -104.773 -1.4837 7.92 -103.998 -1.5225 6.93 -104.746 -1.48502 
6.93 -103.998 -1.5225 6.165 -103.998 -1.5225 22.4788 -103.029 -1.571 
21.78 -103.713 -1.53676 21.78 -103.029 -1.571 20.79 -103.675 -1.53867 
20.79 -103.029 -1.571 19.8 -103.713 -1.53676 19.8 -103.029 -1.571 
18.81 -103.767 -1.53405 18.81 -103.029 -1.571 17.82 -103.029 -1.571 
16.83 -103.029 -1.571 15.84 -103.029 -1.571 14.85 -103.029 -1.571 
13.86 -103.029 -1.571 12.87 -103.029 -1.571 11.88 -103.029 -1.571 
10.89 -103.029 -1.571 9.9 -103.029 -1.571 8.91 -103.029 -1.571 
7.92 -103.029 -1.571 6.93 -103.029 -1.571 5.94 -103.863 -1.52924 
5.94 -103.029 -1.571 4.95 -103.825 -1.53116 4.95 -103.029 -1.571 
3.96 -103.818 -1.53148 3.96 -103.029 -1.571 2.97 -103.825 -1.53116 
2.97 -103.029 -1.571 2.15679 -103.029 -1.571 23.4688 -102.06 -1.6195 
22.77 -102.744 -1.58526 22.77 -102.06 -1.6195 21.78 -102.06 -1.6195 
20.79 -102.06 -1.6195 19.8 -102.06 -1.6195 18.81 -102.06 -1.6195 
17.82 -102.06 -1.6195 16.83 -102.06 -1.6195 15.84 -102.06 -1.6195 
14.85 -102.06 -1.6195 13.86 -102.06 -1.6195 12.87 -102.06 -1.6195 
11.88 -102.06 -1.6195 10.89 -102.06 -1.6195 9.9 -102.06 -1.6195 
8.91 -102.06 -1.6195 7.92 -102.06 -1.6195 6.93 -102.06 -1.6195 
5.94 -102.06 -1.6195 4.95 -102.06 -1.6195 3.96 -102.06 -1.6195 
2.97 -102.06 -1.6195 2.12143 -102.06 -1.6195 -15.0404 -102.06 -1.6195 
-15.84 -102.842 -1.58033 -15.84 -102.06 -1.6195 -16.83 -102.882 -1.57835 
-16.83 -102.06 -1.6195 -17.82 -102.901 -1.57738 -17.82 -102.06 -1.6195 
-18.81 -102.901 -1.57738 -18.81 -102.06 -1.6195 -19.8 -102.886 -1.57813 
-19.8 -102.06 -1.6195 -20.79 -102.849 -1.57998 -20.79 -102.06 -1.6195 
-21.78 -102.774 -1.58376 -21.78 -102.06 -1.6195 -22.5095 -102.06 -1.6195 
25.465 -101.091 -1.668 24.75 -101.791 -1.63297 24.75 -101.091 -1.668 
23.76 -101.791 -1.63297 23.76 -101.091 -1.668 22.77 -101.091 -1.668 
21.78 -101.091 -1.668 20.79 -101.091 -1.668 19.8 -101.091 -1.668 
18.81 -101.091 -1.668 17.82 -101.091 -1.668 16.83 -101.091 -1.668 
15.84 -101.091 -1.668 14.85 -101.091 -1.668 13.86 -101.091 -1.668 
12.87 -101.091 -1.668 11.88 -101.091 -1.668 10.89 -101.091 -1.668 
9.9 -101.091 -1.668 8.91 -101.091 -1.668 7.92 -101.091 -1.668 
6.93 -101.091 -1.668 5.94 -101.091 -1.668 4.95 -101.091 -1.668 
3.96 -101.091 -1.668 2.97 -101.091 -1.668 1.98 -101.939 -1.62556 
1.98 -101.091 -1.668 1.11375 -101.091 -1.668 -13.0468 -101.091 -1.668 
-13.86 -101.887 -1.62816 -13.86 -101.091 -1.668 -14.85 -101.952 -1.62489 
-14.85 -101.091 -1.668 -15.84 -101.091 -1.668 -16.83 -101.091 -1.668 
-17.82 -101.091 -1.668 -18.81 -101.091 -1.668 -19.8 -101.091 -1.668 
-20.79 -101.091 -1.668 -21.78 -101.091 -1.668 -22.77 -101.925 -1.62624 
-22.77 -101.091 -1.668 -23.76 -101.829 -1.63105 -23.76 -101.091 -1.668 
-24.5143 -101.091 -1.668 26.4388 -100.122 -1.7165 25.74 -100.806 -1.68226 
25.74 -100.122 -1.7165 24.75 -100.122 -1.7165 23.76 -100.122 -1.7165 
22.77 -100.122 -1.7165 21.78 -100.122 -1.7165 20.79 -100.122 -1.7165 
19.8 -100.122 -1.7165 18.81 -100.122 -1.7165 17.82 -100.122 -1.7165 
16.83 -100.122 -1.7165 15.84 -100.122 -1.7165 14.85 -100.122 -1.7165 
13.86 -100.122 -1.7165 12.87 -100.122 -1.7165 11.88 -100.122 -1.7165 
10.89 -100.122 -1.7165 9.9 -100.122 -1.7165 8.91 -100.122 -1.7165 
7.92 -100.122 -1.7165 6.93 -100.122 -1.7165 5.94 -100.122 -1.7165 
4.95 -100.122 -1.7165 3.96 -100.122 -1.7165 2.97 -100.122 -1.7165 
1.98 -100.122 -1.7165 0.99 -100.979 -1.67364 0.99 -100.122 -1.7165 
0.115116 -100.122 -1.7165 -12.0175 -100.122 -1.7165 -12.87 -100.957 -1.67474 
-12.87 -100.122 -1.7165 -13.86 -100.122 -1.7165 -14.85 -100.122 -1.7165 
-15.84 -100.122 -1.7165 -16.83 -100.122 -1.7165 -17.82 -100.122 -1.7165 
-18.81 -100.122 -1.7165 -19.8 -100.122 -1.7165 -20.79 -100.122 -1.7165 
-21.78 -100.122 -1.7165 -22.77 -100.122 -1.7165 -23.76 -100.122 -1.7165 
-24.75 -100.94 -1.67558 -24.75 -100.122 -1.7165 -25.74 -100.871 -1.67902 
-25.74 -100.122 -1.7165 -26.73 -100.806 -1.68226 -26.73 -100.122 -1.7165 
-27.4288 -100.122 -1.7165 28.4188 -99.1536 -1.765 27.72 -99.8375 -1.73076 
27.72 -99.1536 -1.765 26.73 -99.8196 -1.73166 26.73 -99.1536 -1.765 
25.74 -99.1536 -1.765 24.75 -99.1536 -1.765 23.76 -99.1536 -1.765 
22.77 -99.1536 -1.765 21.78 -99.1536 -1.765 20.79 -99.1536 -1.765 
19.8 -99.1536 -1.765 18.81 -99.1536 -1.765 17.82 -99.1536 -1.765 
16.83 -99.1536 -1.765 15.84 -99.1536 -1.765 14.85 -99.1536 -1.765 
13.86 -99.1536 -1.765 12.87 -99.1536 -1.765 11.88 -99.1536 -1.765 
10.89 -99.1536 -1.765 9.9 -99.1536 -1.765 8.91 -99.1536 -1.765 
7.92 -99.1536 -1.765 6.93 -99.1536 -1.765 5.94 -99.1536 -1.765 
4.95 -99.1536 -1.765 3.96 -99.1536 -1.765 2.97 -99.1536 -1.765 
1.98 -99.1536 -1.765 0.99 -99.1536 -1.765 0.0838983 -99.1536 -1.765 
-11.9668 -99.1536 -1.765 -12.87 -99.1536 -1.765 -13.86 -99.1536 -1.765 
-14.85 -99.1536 -1.765 -15.84 -99.1536 -1.765 -16.83 -99.1536 -1.765 
-17.82 -99.1536 -1.765 -18.81 -99.1536 -1.765 -19.8 -99.1536 -1.765 
-20.79 -99.1536 -1.765 -21.78 -99.1536 -1.765 -22.77 -99.1536 -1.765 
-23.76 -99.1536 -1.765 -24.75 -99.1536 -1.765 -25.74 -99.1536 -1.765 
-26.73 -99.1536 -1.765 -27.72 -99.943 -1.72548 -27.72 -99.1536 -1.765 
-28.71 -99.8375 -1.73076 -28.71 -99.1536 -1.765 -29.7 -99.7764 -1.73382 
-29.7 -99.1536 -1.765 -30.3364 -99.1536 -1.765 29.3906 -98.1848 -1.8135 
28.71 -98.8509 -1.78016 28.71 -98.1848 -1.8135 27.72 -98.1848 -1.8135 
26.73 -98.1848 -1.8135 25.74 -98.1848 -1.8135 24.75 -98.1848 -1.8135 
23.76 -98.1848 -1.8135 22.77 -98.1848 -1.8135 21.78 -98.1848 -1.8135 
20.79 -98.1848 -1.8135 19.8 -98.1848 -1.8135 18.81 -98.1848 -1.8135 
17.82 -98.1848 -1.8135 16.83 -98.1848 -1.8135 15.84 -98.1848 -1.8135 
14.85 -98.1848 -1.8135 13.86 -98.1848 -1.8135 12.87 -98.1848 -1.8135 
11.88 -98.1848 -1.8135 10.89 -98.1848 -1.8135 9.9 -98.1848 -1.8135 
8.91 -98.1848 -1.8135 7.92 -98.1848 -1.8135 6.93 -98.1848 -1.8135 
5.94 -98.1848 -1.8135 4.95 -98.1848 -1.8135 3.96 -98.1848 -1.8135 
2.97 -98.1848 -1.8135 1.98 -98.1848 -1.8135 0.99 -98.1848 -1.8135 
0 -99.0686 -1.76925 0 -98.1848 -1.8135 -0.903158 -98.1848 -1.8135 
-2.10073 -98.1848 -1.8135 -2.97 -99.0355 -1.77091 -2.97 -98.1848 -1.8135 
-3.83927 -98.1848 -1.8135 -10.9753 -98.1848 -1.8135 -11.88 -99.0701 -1.76918 
-11.88 -98.1848 -1.8135 -12.87 -98.1848 -1.8135 -13.86 -98.1848 -1.8135 
-14.85 -98.1848 -1.8135 -15.84 -98.1848 -1.8135 -16.83 -98.1848 -1.8135 
-17.82 -98.1848 -1.8135 -18.81 -98.1848 -1.8135 -19.8 -98.1848 -1.8135 
-20.79 -98.1848 -1.8135 -21.78 -98.1848 -1.8135 -22.77 -98.1848 -1.8135 
-23.76 -98.1848 -1.8135 -24.75 -98.1848 -1.8135 -25.74 -98.1848 -1.8135 
-26.73 -98.1848 -1.8135 -27.72 -98.1848 -1.8135 -28.71 -98.1848 -1.8135 
-29.7 -98.1848 -1.8135 -30.69 -98.8987 -1.77776 -30.69 -98.1848 -1.8135 
-31.68 -98.8509 -1.78016 -31.68 -98.1848 -1.8135 -32.3606 -98.1848 -1.8135 
31.3706 -97.216 -1.862 30.69 -97.882 -1.82866 30.69 -97.216 -1.862 
29.7 -97.9157 -1.82697 29.7 -97.216 -1.862 28.71 -97.216 -1.862 
27.72 -97.216 -1.862 26.73 -97.216 -1.862 25.74 -97.216 -1.862 
24.75 -97.216 -1.862 23.76 -97.216 -1.862 22.77 -97.216 -1.862 
21.78 -97.216 -1.862 20.79 -97.216 -1.862 19.8 -97.216 -1.862 
18.81 -97.216 -1.862 17.82 -97.216 -1.862 16.83 -97.216 -1.862 
15.84 -97.216 -1.862 14.85 -97.216 -1.862 13.86 -97.216 -1.862 
12.87 -97.216 -1.862 11.88 -97.216 -1.862 10.89 -97.216 -1.862 
9.9 -97.216 -1.862 8.91 -97.216 -1.862 7.92 -97.216 -1.862 
6.93 -97.216 -1.862 5.94 -97.216 -1.862 4.95 -97.216 -1.862 
3.96 -97.216 -1.862 2.97 -97.216 -1.862 1.98 -97.216 -1.862 
0.99 -97.216 -1.862 0 -97.216 -1.862 -0.99 -98.1125 -1.81712 
-0.99 -97.216 -1.862 -1.98 -98.1175 -1.81687 -1.98 -97.216 -1.862 
-2.97 -97.216 -1.862 -3.89487 -97.216 -1.862 -10.9597 -97.216 -1.862 
-11.88 -97.216 -1.862 -12.87 -97.216 -1.862 -13.86 -97.216 -1.862 
-14.85 -97.216 -1.862 -15.84 -97.216 -1.862 -16.83 -97.216 -1.862 
-17.82 -97.216 -1.862 -18.81 -97.216 -1.862 -19.8 -97.216 -1.862 
-20.79 -97.216 -1.862 -21.78 -97.216 -1.862 -22.77 -97.216 -1.862 
-23.76 -97.216 -1.862 -24.75 -97.216 -1.862 -25.74 -97.216 -1.862 
-26.73 -97.216 -1.862 -27.72 -97.216 -1.862 -28.71 -97.216 -1.862 
-29.7 -97.216 -1.862 -30.69 -97.216 -1.862 -31.68 -97.216 -1.862 
-32.67 -97.8999 -1.82776 -32.67 -97.216 -1.862 -33.66 -97.8388 -1.83082 
-33.66 -97.216 -1.862 -34.2964 -97.216 -1.862 33.3688 -96.2472 -1.9105 
32.67 -96.9311 -1.87626 32.67 -96.2472 -1.9105 31.68 -96.8931 -1.87817 
31.68 -96.2472 -1.9105 30.69 -96.2472 -1.9105 29.7 -96.2472 -1.9105 
28.71 -96.2472 -1.9105 27.72 -96.2472 -1.9105 26.73 -96.2472 -1.9105 
25.74 -96.2472 -1.9105 24.75 -96.2472 -1.9105 23.76 -96.2472 -1.9105 
22.77 -96.2472 -1.9105 21.78 -96.2472 -1.9105 20.79 -96.2472 -1.9105 
19.8 -96.2472 -1.9105 18.81 -96.2472 -1.9105 17.82 -96.2472 -1.9105 
16.83 -96.2472 -1.9105 15.84 -96.2472 -1.9105 14.85 -96.2472 -1.9105 
13.86 -96.2472 -1.9105 12.87 -96.2472 -1.9105 11.88 -96.2472 -1.9105 
10.89 -96.2472 -1.9105 9.9 -96.2472 -1.9105 8.91 -96.2472 -1.9105 
7.92 -96.2472 -1.9105 6.93 -96.2472 -1.9105 5.94 -96.2472 -1.9105 
4.95 -96.2472 -1.9105 3.96 -96.2472 -1.9105 2.97 -96.2472 -1.9105 
1.98 -96.2472 -1.9105 0.99 -96.2472 -1.9105 0 -96.2472 -1.9105 
-0.99 -96.2472 -1.9105 -1.98 -96.2472 -1.9105 -2.97 -96.2472 -1.9105 
-3.89654 -96.2472 -1.9105 -10.9482 -96.2472 -1.9105 -11.88 -96.2472 -1.9105 
-12.87 -96.2472 -1.9105 -13.86 -96.2472 -1.9105 -14.85 -96.2472 -1.9105 
-15.84 -96.2472 -1.9105 -16.83 -96.2472 -1.9105 -17.82 -96.2472 -1.9105 
[...]
POINT_DATA 19984
SCALARS scalars float
LOOKUP_TABLE default
5 5 16 5 18 5 19 5 22 
5 27 5 35 5 37 5 37 5 
33 5 29 5 25 5 22 5 5 
5 17 5 15 5 17 5 21 30 
39 52 58 63 69 73 74 68 62 
53 48 5 36 5 28 5 27 5 
28 5 5 5 17 17 21 33 49 
61 72 81 85 85 87 94 98 97 
92 89 84 73 59 44 35 5 5 
5 26 5 33 5 38 5 38 5 
34 5 27 5 19 5 5 5 18 
5 18 20 29 43 56 63 71 80 
85 87 88 88 95 101 103 99 99 
99 91 89 75 55 5 40 5 5 
5 28 5 45 65 78 85 85 83 
74 56 5 36 5 21 5 5 5 
17 17 25 39 50 57 63 67 71 
74 76 75 76 77 81 89 95 98 
95 99 97 95 94 80 60 5 43 
5 5 5 36 58 83 96 98 100 
102 101 100 93 75 52 5 32 5 
22 5 17 5 5 5 17 5 16 
22 33 47 56 55 60 72 74 70 
67 65 64 67 69 67 73 85 96 
96 92 90 92 94 91 76 59 5 
5 57 82 98 100 101 104 105 103 
102 99 88 78 69 58 42 5 27 
5 17 5 14 5 5 5 16 21 
33 48 57 61 63 63 62 74 81 
80 78 76 78 80 81 80 81 90 
102 99 95 89 87 86 84 77 67 
5 57 5 5 5 41 5 5 5 
58 73 94 99 101 105 108 105 102 
99 97 92 89 89 86 77 63 45 
29 5 19 5 16 5 5 5 16 
5 18 26 46 62 69 71 72 74 
69 62 67 81 87 86 84 87 89 
92 92 93 97 106 106 98 91 88 
82 81 76 68 63 5 67 5 72 
76 5 5 71 93 100 100 102 108 
107 99 94 91 92 92 94 100 100 
92 81 78 72 52 29 5 17 5 
14 5 5 5 17 5 15 16 30 
53 70 73 76 77 80 83 82 76 
69 76 84 87 83 85 89 92 95 
98 103 108 112 105 96 92 83 74 
71 64 60 65 78 78 5 5 85 
102 102 104 106 109 109 100 94 92 
93 94 101 105 106 102 94 92 88 
80 61 38 23 5 16 5 5 15 
20 32 51 69 79 83 86 82 82 
85 88 87 81 77 81 84 80 79 
86 92 98 104 109 109 108 107 105 
97 82 68 64 60 60 66 78 73 
5 5 5 62 5 67 94 102 104 
107 109 110 114 110 104 101 99 100 
108 111 112 108 101 97 93 86 76 
67 56 40 5 27 5 20 5 5 
5 16 5 18 5 23 35 52 62 
64 74 88 94 94 90 85 85 89 
92 89 83 83 87 84 82 87 96 
104 109 110 108 105 101 101 96 73 
57 56 56 54 60 71 69 5 5 
60 71 94 101 104 100 98 101 105 
108 111 112 109 109 111 112 113 111 
106 100 96 93 89 85 86 81 64 
42 5 23 5 5 5 16 5 5 
24 38 56 72 78 77 71 76 88 
94 98 97 89 88 92 98 98 92 
92 94 92 89 94 103 110 109 110 
108 101 92 82 77 70 68 68 64 
55 55 63 69 5 5 64 74 86 
95 95 88 83 87 95 101 106 110 
109 111 113 112 112 113 113 107 103 
100 98 99 100 97 93 81 58 5 
33 5 18 5 5 20 5 34 55 
73 84 88 88 85 75 72 86 97 
102 104 98 92 91 99 105 103 101 
102 100 98 102 107 109 107 108 107 
97 86 75 70 78 86 92 90 75 
63 56 61 5 5 5 61 5 62 
71 75 74 81 85 81 67 67 81 
87 94 100 104 110 114 113 112 113 
115 114 112 107 108 108 108 107 100 
94 87 69 38 5 18 5 5 5 
15 5 20 39 63 78 86 90 92 
90 84 73 69 82 97 106 110 108 
102 100 104 111 111 110 108 107 106 
103 101 103 104 108 108 99 87 78 
80 90 94 95 95 90 72 52 57 
5 5 5 59 60 66 75 72 76 
87 91 86 67 65 85 90 91 91 
99 109 114 114 111 110 112 113 110 
108 109 110 109 110 107 100 96 91 
76 45 5 20 5 5 5 14 5 
15 19 38 60 75 83 87 91 92 
88 81 70 68 83 96 104 112 114 
111 110 111 113 112 111 112 110 108 
99 92 95 100 104 106 103 94 89 
94 98 96 96 94 93 82 60 57 
5 5 66 67 73 82 84 92 99 
99 92 80 80 95 99 98 97 105 
111 112 114 111 105 102 102 102 100 
100 101 100 99 100 100 99 95 91 
78 50 5 24 5 5 14 18 38 
55 59 66 75 79 82 82 79 74 
68 69 83 96 103 112 116 115 112 
111 110 109 112 113 110 105 94 84 
83 90 97 104 105 102 99 101 100 
98 97 94 93 87 66 57 5 5 
5 74 72 72 80 90 95 98 103 
102 92 86 94 104 107 108 107 111 
115 113 110 106 96 86 84 88 91 
89 85 83 85 87 91 94 92 90 
89 82 54 5 5 18 38 58 56 
52 58 67 72 76 76 74 74 73 
76 84 94 103 110 113 114 111 107 
103 105 109 112 110 106 95 84 76 
76 87 98 103 104 103 98 95 91 
90 90 91 86 68 59 5 63 5 
69 79 77 78 90 96 99 102 102 
96 86 89 100 105 107 107 107 109 
113 112 109 102 88 79 80 85 88 
87 84 78 82 86 88 87 89 90 
92 93 83 5 49 5 5 5 15 
35 59 63 56 55 59 68 76 81 
84 82 80 78 80 87 97 104 110 
112 113 108 99 93 93 100 108 109 
109 102 91 78 71 75 86 96 101 
102 94 88 82 76 77 79 76 66 
61 65 67 72 75 88 99 100 103 
106 98 88 84 93 103 104 105 101 
99 99 105 106 104 94 83 82 88 
92 93 93 91 88 91 92 92 92 
90 92 98 97 94 71 5 33 5 
5 5 15 29 52 63 65 61 59 
68 77 84 91 90 88 87 84 86 
92 98 107 113 113 112 106 95 85 
81 88 98 107 111 109 99 90 79 
66 69 85 97 101 94 88 77 65 
59 56 56 57 62 68 65 69 84 
97 100 104 106 105 94 84 84 97 
105 104 105 99 87 82 88 94 91 
82 81 86 93 97 100 102 101 101 
102 102 102 101 100 100 103 100 96 
81 47 5 5 5 14 24 45 56 
63 68 64 58 68 85 94 99 101 
100 99 99 99 102 105 110 114 114 
111 105 97 87 75 73 86 98 106 
111 104 97 89 68 60 77 93 100 
97 90 87 82 74 60 51 59 66 
63 61 79 95 101 103 106 104 98 
87 80 83 99 107 108 105 99 87 
77 74 75 67 62 78 92 97 104 
111 112 113 112 111 112 110 110 110 
107 102 99 92 79 55 5 30 5 
5 20 37 47 62 73 73 68 62 
65 82 94 97 104 108 108 108 108 
108 111 113 115 113 113 107 95 89 
71 55 67 86 96 107 108 101 93 
76 65 77 91 97 99 95 91 91 
90 80 65 64 66 64 75 92 98 
102 105 102 93 89 83 79 83 97 
108 111 109 102 95 88 83 79 63 
53 77 94 98 108 115 114 116 116 
116 115 112 110 107 101 98 93 83 
71 61 45 5 21 5 5 5 19 
37 46 57 78 84 80 78 70 64 
74 88 94 102 107 112 113 113 114 
116 116 115 113 114 109 96 88 70 
51 60 79 87 98 108 105 95 81 
71 80 92 97 98 96 91 90 90 
84 72 66 67 78 92 99 100 104 
102 94 86 85 86 90 95 101 111 
114 114 110 102 99 97 93 84 71 
80 93 99 109 114 113 116 115 112 
110 108 104 100 96 90 83 76 69 
70 63 37 5 5 35 54 58 74 
86 87 88 87 84 78 71 76 87 
95 99 108 113 115 115 115 115 115 
113 112 106 93 84 74 73 80 81 
80 88 101 105 97 87 78 81 89 
94 97 98 92 90 87 78 67 65 
74 90 96 99 101 103 98 91 85 
89 96 101 105 107 113 115 115 114 
108 103 100 94 86 77 80 91 98 
108 115 113 113 114 112 107 102 97 
92 88 81 76 77 82 86 82 66 
5 32 5 5 5 15 5 28 55 
67 72 84 88 90 95 95 92 90 
79 70 73 85 92 98 109 114 115 
115 113 114 114 109 99 90 81 80 
88 90 88 83 81 91 103 100 93 
83 80 87 92 95 96 93 92 84 
70 59 64 82 95 99 101 101 99 
92 87 89 96 103 108 112 109 110 
112 113 113 108 102 96 93 86 80 
82 91 97 107 113 112 111 113 112 
104 96 89 84 77 73 78 85 91 
94 93 86 56 5 21 5 5 24 
45 66 73 82 88 89 91 96 101 
99 91 89 79 66 73 84 90 101 
111 114 114 111 113 114 105 94 83 
77 83 91 95 95 87 80 84 95 
100 98 88 79 80 88 90 92 94 
90 78 60 52 63 85 95 99 100 
96 89 82 83 92 101 107 108 105 
101 101 105 105 104 101 94 85 84 
84 86 89 95 102 110 112 115 113 
113 113 104 92 84 75 72 77 86 
92 97 99 95 90 77 38 5 5 
5 16 5 28 47 66 79 83 88 
91 92 92 96 105 108 99 93 87 
75 70 80 89 94 105 113 113 112 
114 113 100 90 79 78 87 93 102 
103 94 81 79 88 97 98 94 85 
75 81 87 90 89 81 67 53 49 
61 86 94 97 96 87 73 75 82 
96 106 109 102 93 86 87 92 95 
96 92 87 83 87 90 95 99 104 
109 112 114 115 114 112 113 107 97 
88 84 86 89 95 98 105 105 96 
90 90 65 5 26 5 5 32 52 
70 83 87 88 92 94 90 91 93 
101 111 109 97 90 85 74 76 88 
93 105 114 115 114 113 107 94 86 
76 79 89 97 107 107 101 90 83 
86 95 100 99 92 83 78 74 79 
81 73 56 49 50 61 82 91 94 
90 79 73 83 92 100 107 108 99 
90 80 78 83 86 88 82 76 83 
91 97 104 109 112 113 112 113 113 
114 114 115 113 107 102 98 99 101 
104 108 112 109 101 94 93 83 47 
5 5 5 17 5 32 59 74 84 
88 90 96 100 96 92 88 88 98 
108 114 106 95 89 78 72 84 94 
108 113 113 115 110 99 90 83 75 
80 90 99 109 108 106 102 97 95 
98 103 101 92 89 84 70 66 69 
63 49 50 54 63 79 88 88 80 
75 88 96 99 104 110 110 105 96 
88 85 85 86 88 82 75 85 93 
98 104 107 112 115 114 115 115 115 
115 114 114 114 112 112 112 112 113 
112 111 112 108 98 93 91 70 5 
5 5 15 31 58 79 85 89 92 
97 102 101 96 90 84 85 94 105 
114 113 100 92 84 76 84 96 110 
113 112 111 101 92 87 78 74 83 
95 102 107 103 101 103 104 104 104 
103 103 97 89 88 75 60 61 58 
50 55 60 63 77 85 82 74 80 
95 99 104 109 112 112 110 105 101 
99 97 96 95 92 85 79 86 93 
97 96 99 106 113 114 116 116 113 
110 110 111 113 115 115 114 114 111 
110 111 108 102 95 93 83 5 47 
5 5 5 14 27 56 77 84 88 
92 96 103 107 103 97 88 81 81 
88 101 113 115 108 99 90 84 89 
102 112 114 111 103 92 86 82 78 
78 89 99 104 100 90 91 94 99 
102 104 102 97 94 88 86 78 62 
57 57 55 64 66 62 71 80 75 
69 82 94 98 106 109 110 111 108 
109 111 110 110 107 99 94 89 72 
66 75 83 85 86 93 107 115 117 
116 114 112 108 106 111 113 115 115 
113 109 105 103 99 96 93 91 87 
58 5 5 20 52 79 85 86 90 
97 102 106 109 102 95 88 78 76 
85 97 109 113 114 108 100 99 102 
109 114 113 108 96 84 78 75 82 
87 95 102 104 92 80 80 83 89 
94 98 101 96 92 88 83 75 62 
57 61 65 73 69 59 61 71 71 
66 80 92 92 98 103 104 103 100 
99 102 109 114 114 104 95 91 72 
58 66 78 85 85 92 106 116 117 
116 115 110 105 104 107 111 113 113 
107 98 93 91 92 92 92 89 82 
61 5 5 5 17 40 74 85 86 
90 98 105 109 108 109 104 96 88 
79 73 80 90 102 114 114 107 103 
106 110 113 113 112 106 92 83 74 
73 87 93 99 106 106 91 78 73 
70 78 86 90 92 89 87 84 77 
68 59 56 62 71 75 69 55 52 
65 68 61 68 83 87 90 95 96 
95 91 86 88 99 111 114 103 92 
83 73 71 77 84 93 96 103 111 
116 115 115 113 107 100 101 106 111 
114 112 99 88 81 78 80 80 78 
74 67 54 5 29 5 5 28 65 
85 87 90 99 106 109 110 109 110 
107 100 91 83 76 75 83 96 110 
115 109 98 103 113 113 112 113 106 
94 85 77 77 89 94 103 109 107 
96 85 78 67 64 73 79 82 83 
81 76 68 58 52 49 55 69 70 
66 57 50 56 63 62 57 60 66 
71 79 85 86 81 77 80 93 108 
109 97 87 76 76 87 94 98 101 
104 111 116 116 114 115 114 108 101 
100 105 111 113 105 93 83 70 61 
65 68 68 70 65 55 38 5 5 
41 78 86 88 94 103 106 107 110 
114 113 111 104 95 89 82 76 80 
90 103 114 115 103 103 114 112 112 
114 106 95 86 80 79 88 94 102 
110 108 100 91 87 80 74 68 66 
65 64 62 59 54 51 50 43 46 
68 79 73 62 53 52 58 63 60 
53 53 62 75 86 88 88 89 90 
99 109 105 94 81 71 82 95 98 
102 107 110 116 117 117 116 117 117 
110 102 102 108 112 111 100 91 79 
64 62 73 79 82 83 81 74 56 
5 24 5 5 5 20 50 80 84 
86 93 96 96 98 105 112 114 114 
110 102 92 85 79 78 86 99 110 
113 110 110 113 113 112 112 105 92 
87 82 75 83 89 98 107 108 104 
97 92 88 86 80 73 66 5 5 
5 5 5 5 5 5 5 5 5 
73 5 5 5 5 5 5 61 65 
64 59 63 80 91 93 93 97 99 
100 107 110 103 94 80 71 84 94 
98 105 110 112 116 114 116 117 116 
116 110 106 108 113 114 108 95 88 
77 68 77 86 89 90 90 89 88 
79 50 5 19 5 5 5 14 24 
56 80 86 84 86 85 85 87 95 
107 114 113 111 104 93 86 80 77 
84 97 112 115 112 113 111 111 109 
105 100 92 88 80 69 78 86 95 
104 104 102 99 96 91 87 82 77 
70 5 65 5 67 5 5 5 5 
64 61 64 78 89 93 96 100 105 
109 109 111 112 105 97 88 79 80 
88 93 96 104 109 114 112 113 117 
117 117 110 109 111 113 115 105 91 
85 78 79 85 89 93 96 95 93 
89 87 76 43 5 5 18 30 52 
71 79 78 80 77 79 81 86 97 
111 113 108 103 96 87 80 79 86 
98 111 113 111 110 104 101 96 92 
91 88 86 72 59 72 83 93 104 
101 95 93 94 91 87 82 77 71 
68 73 5 5 5 71 59 50 60 
77 87 92 97 100 103 105 102 103 
107 105 99 95 82 69 78 89 93 
98 105 114 116 115 119 120 116 110 
112 112 114 113 103 93 86 80 82 
88 91 99 105 101 96 91 89 87 
71 5 39 5 5 5 18 29 38 
44 57 69 74 76 75 74 77 82 
90 101 111 110 103 94 86 79 79 
86 100 111 112 111 105 95 88 86 
88 86 81 78 71 67 75 82 94 
104 100 92 91 89 89 87 79 74 
5 5 5 5 5 5 5 5 5 
68 80 88 92 95 95 94 91 91 
94 97 94 92 84 71 82 90 92 
97 108 114 115 115 118 119 117 115 
113 114 115 113 102 95 85 78 81 
90 94 101 105 102 95 94 93 89 
83 63 5 33 5 15 5 5 5 
17 29 44 46 42 55 69 77 78 
77 77 78 82 88 97 108 109 103 
94 86 79 81 88 103 111 111 110 
100 84 79 78 76 73 74 78 81 
85 87 90 100 106 101 94 92 85 
83 81 75 72 5 5 57 72 80 
84 88 87 86 81 83 83 87 90 
89 85 80 89 93 96 103 111 115 
115 116 116 118 118 116 114 116 115 
114 103 93 83 78 81 89 96 104 
104 100 94 92 90 86 85 79 58 
31 5 5 5 15 28 51 59 52 
52 66 75 80 81 83 83 83 85 
90 98 107 110 104 95 86 80 81 
90 105 112 111 110 100 84 82 76 
61 59 77 87 87 91 96 102 107 
107 101 95 90 83 78 76 71 67 
5 5 47 60 68 71 73 75 77 
76 79 78 79 81 77 76 84 91 
94 101 108 110 111 113 117 118 119 
118 114 114 113 113 115 106 94 83 
79 80 89 96 103 105 101 93 89 
89 88 86 85 77 58 5 31 5 
5 5 14 24 49 67 63 59 66 
77 81 82 86 88 88 90 94 98 
103 109 110 103 93 84 79 81 91 
107 112 112 113 106 89 88 86 71 
65 80 89 91 98 105 109 108 105 
96 90 86 80 72 69 64 5 5 
5 5 52 59 66 78 83 85 86 
86 83 82 80 70 67 83 94 94 
100 108 111 110 112 117 117 117 116 
115 113 110 112 113 108 96 87 82 
82 90 99 106 109 104 95 89 88 
89 87 86 84 79 59 5 5 5 
14 21 41 65 72 70 72 77 83 
84 85 87 89 92 96 100 104 108 
112 110 103 93 85 81 84 96 110 
113 113 115 112 98 91 90 84 74 
80 89 92 101 108 108 103 96 88 
84 81 73 64 61 53 5 5 47 
60 73 83 89 91 90 89 89 87 
86 81 74 80 89 91 93 100 106 
110 114 117 118 117 118 117 112 108 
109 111 111 105 97 92 91 93 102 
111 111 104 99 94 91 91 91 89 
87 85 79 5 57 5 25 5 5 
5 15 19 38 62 74 76 75 79 
84 85 85 87 88 89 96 101 105 
110 114 114 110 102 92 86 82 86 
99 110 111 114 114 111 106 97 90 
86 77 76 85 88 96 107 108 99 
88 80 73 65 57 54 5 5 5 
5 5 55 71 82 88 91 94 97 
96 94 89 89 87 80 81 89 90 
91 94 96 105 114 118 118 119 118 
111 103 101 103 107 110 108 106 103 
105 109 114 114 109 104 99 97 96 
95 94 89 85 85 77 45 5 18 
5 5 18 38 60 73 78 82 83 
85 86 87 87 88 89 92 98 103 
108 113 116 114 112 104 94 87 83 
88 105 115 113 111 112 112 112 102 
90 87 80 73 77 84 88 102 107 
99 87 79 71 67 65 60 5 5 
5 64 79 87 90 94 98 100 101 
98 92 90 84 78 80 86 88 87 
87 93 107 117 119 118 118 110 99 
94 95 99 107 111 112 111 112 114 
115 114 113 107 104 103 101 100 99 
94 90 87 83 68 34 5 5 5 
17 30 58 71 79 82 85 86 87 
87 86 88 88 91 94 97 104 110 
114 116 114 111 103 96 89 85 92 
108 115 114 112 113 115 112 101 90 
86 82 71 67 78 84 92 104 104 
93 85 81 81 78 67 5 5 59 
72 84 88 90 93 98 104 103 94 
89 88 82 71 70 74 77 81 88 
102 116 118 118 119 112 97 89 88 
90 99 106 110 112 112 114 114 112 
109 106 103 102 102 103 103 99 94 
89 85 83 55 5 21 5 5 5 
14 24 49 68 75 84 85 86 87 
88 90 90 91 90 95 97 101 106 
111 113 114 113 108 101 97 92 90 
102 113 116 115 114 113 113 110 101 
91 86 83 72 55 60 79 86 98 
107 99 90 84 82 76 64 5 5 
64 67 77 84 83 88 94 102 102 
96 91 90 89 80 68 57 59 76 
88 99 115 119 118 119 114 100 87 
83 84 90 97 106 112 114 114 111 
106 101 98 94 94 98 100 100 99 
97 91 86 86 71 37 5 17 5 
5 5 15 20 38 59 67 77 81 
82 85 87 90 92 95 97 97 99 
101 105 109 111 114 113 111 106 101 
97 94 98 109 115 116 114 113 113 
111 108 98 90 83 83 79 55 46 
67 83 95 106 100 90 85 82 75 
62 5 5 69 66 71 74 74 80 
88 99 102 94 90 90 89 88 79 
59 58 80 90 102 115 117 116 117 
115 104 88 80 79 85 92 102 108 
110 107 102 98 94 89 87 90 93 
95 97 97 97 93 89 87 76 54 
27 5 5 5 17 17 29 48 57 
65 77 78 81 83 85 88 92 97 
102 105 103 105 110 114 113 112 109 
106 101 98 95 95 102 112 114 114 
115 115 113 111 104 92 85 83 82 
78 59 54 71 84 96 107 102 91 
84 81 75 67 5 5 69 63 68 
67 68 77 87 97 101 94 88 88 
87 89 83 65 66 84 90 100 112 
116 115 117 115 104 89 81 76 82 
89 94 98 97 94 91 89 86 82 
82 84 87 89 92 93 96 93 90 
88 76 65 45 5 19 5 5 14 
22 41 53 60 72 78 79 81 82 
81 85 90 96 103 109 110 114 116 
115 112 108 104 100 95 95 93 95 
107 115 114 114 115 114 112 109 97 
87 83 80 76 71 65 73 82 86 
98 108 101 92 86 81 74 68 5 
5 68 62 63 63 69 82 91 99 
99 90 85 84 85 86 80 67 70 
85 90 97 110 116 114 115 116 107 
93 85 78 82 87 89 90 87 85 
83 80 80 82 84 85 87 89 91 
92 96 97 93 88 81 74 60 26 
5 5 5 15 17 33 56 66 72 
78 79 78 79 81 82 84 89 96 
103 111 114 118 117 115 112 106 100 
94 89 90 91 97 109 115 115 113 
113 113 111 103 91 85 79 73 71 
69 74 83 86 91 101 106 102 95 
88 84 75 66 5 5 75 63 59 
65 75 87 93 101 96 88 83 80 
80 79 72 68 73 82 87 94 107 
118 116 117 118 110 95 86 77 72 
78 82 81 79 78 76 78 80 86 
90 94 95 96 97 98 100 103 97 
91 88 81 72 38 5 5 5 16 
15 30 58 78 80 80 79 78 79 
79 82 82 82 88 96 104 111 114 
118 118 117 113 107 97 90 85 83 
88 101 113 113 115 115 114 114 110 
97 87 82 73 67 65 67 78 84 
86 93 105 106 103 96 90 85 77 
66 5 5 5 64 58 66 80 87 
93 98 93 87 83 79 76 72 66 
69 75 79 85 89 100 114 118 117 
118 115 98 88 77 59 63 75 77 
77 78 79 83 86 95 101 105 108 
108 108 108 107 105 99 93 89 87 
76 48 5 5 15 27 58 83 86 
85 84 79 76 76 77 79 81 84 
86 91 98 107 113 117 117 117 114 
106 96 87 81 80 87 101 114 113 
116 116 114 116 108 93 88 77 63 
63 63 69 77 83 86 93 105 105 
101 93 87 82 76 67 5 5 60 
53 71 84 87 93 94 89 83 78 
79 78 71 66 76 81 82 84 87 
97 111 118 117 118 116 100 89 78 
66 71 80 82 82 83 87 94 101 
108 112 114 116 113 108 106 102 97 
93 90 89 88 71 53 5 33 5 
5 5 15 18 49 81 86 88 89 
86 82 75 71 71 75 81 83 85 
87 91 101 110 116 117 116 115 108 
98 88 82 82 86 99 114 113 115 
118 115 115 105 91 85 74 64 64 
67 73 76 80 85 93 104 102 95 
88 84 80 71 59 5 5 58 55 
74 83 87 95 94 87 81 73 73 
78 70 66 78 83 84 86 86 94 
109 117 116 116 114 101 87 81 80 
82 86 90 94 97 104 108 113 114 
115 114 110 102 96 92 89 87 87 
84 83 78 60 53 49 5 5 14 
35 73 87 86 91 90 87 85 74 
63 59 67 76 80 83 85 87 93 
102 112 117 116 117 112 103 95 89 
86 88 98 111 113 115 116 115 116 
103 87 82 72 62 63 68 74 76 
82 85 91 101 99 91 84 82 74 
59 50 5 5 53 52 73 83 86 
95 96 89 85 75 67 71 67 67 
78 84 84 86 86 94 109 116 115 
116 116 107 93 86 87 90 97 105 
109 111 113 114 115 115 111 103 97 
90 88 87 86 84 79 74 70 66 
65 67 66 5 54 5 5 5 12 
20 58 84 87 91 96 94 89 84 
80 67 55 55 65 74 79 83 85 
88 95 105 115 116 117 115 110 103 
96 91 92 104 111 114 116 115 114 
113 98 85 81 70 60 61 68 71 
73 81 86 90 96 93 85 84 79 
65 55 54 5 51 5 5 47 52 
74 84 88 97 100 92 85 79 69 
62 59 63 76 85 86 86 87 94 
109 114 116 117 117 115 107 101 102 
107 110 112 113 114 114 113 112 111 
102 91 88 85 83 81 80 77 73 
72 73 76 84 85 81 72 5 40 
5 5 14 36 76 89 90 95 104 
103 95 86 85 80 72 67 66 66 
73 80 81 84 90 98 110 115 115 
115 112 107 100 96 96 107 114 116 
115 115 115 111 97 85 78 70 61 
64 69 71 69 77 83 87 90 88 
83 82 67 57 62 60 52 5 5 
41 53 74 84 89 99 103 96 88 
85 78 67 58 56 71 84 86 86 
88 96 110 114 116 117 117 117 117 
114 114 116 115 114 114 114 114 113 
110 101 91 86 84 80 76 73 73 
76 79 81 85 89 90 91 89 84 
61 5 25 5 5 17 48 84 88 
89 96 106 112 108 95 88 84 83 
82 79 74 75 78 79 82 87 92 
103 112 113 114 112 107 102 99 103 
109 113 115 115 113 113 109 94 83 
80 72 61 64 71 71 67 73 80 
83 85 84 81 70 58 62 69 62 
54 5 5 39 52 72 84 88 96 
104 101 93 87 85 78 68 61 67 
81 86 88 90 99 111 114 114 116 
117 117 118 116 116 118 117 115 114 
112 114 111 101 90 86 84 79 72 
70 77 82 84 86 87 89 92 94 
96 92 88 80 49 5 5 5 13 
19 50 80 87 88 90 94 105 113 
111 102 94 90 86 85 82 82 80 
78 78 82 89 102 112 114 115 114 
111 105 106 110 112 113 114 114 113 
112 108 94 83 81 73 59 60 68 
72 68 73 77 79 79 77 64 55 
62 72 72 63 53 5 5 40 53 
71 81 86 91 98 100 94 88 88 
85 80 76 70 76 84 86 88 93 
105 114 114 114 116 118 118 115 117 
118 116 116 116 116 113 103 91 85 
83 79 73 73 80 86 87 88 89 
91 93 96 100 100 95 88 87 73 
5 31 5 5 14 29 52 71 81 
83 84 86 92 104 116 116 110 104 
97 91 87 84 82 79 78 80 87 
102 115 116 115 114 114 111 111 113 
114 114 114 111 109 109 106 94 86 
81 77 63 56 59 65 69 77 80 
76 70 62 50 61 75 78 75 66 
54 5 5 5 56 70 79 83 87 
92 100 98 92 88 86 85 83 79 
75 76 81 86 88 94 108 114 112 
115 115 116 115 117 117 117 116 116 
115 106 91 84 83 80 78 79 84 
87 90 91 95 97 96 98 102 107 
106 97 89 86 84 48 5 5 21 
50 68 73 77 76 74 79 87 98 
111 118 118 116 111 104 95 89 84 
82 80 82 87 102 117 115 115 116 
116 115 115 115 113 112 114 110 107 
106 101 89 85 80 78 69 54 50 
60 71 77 78 73 65 58 60 74 
80 81 79 66 53 5 5 59 67 
71 83 87 88 93 95 92 89 87 
85 85 83 76 73 74 82 85 87 
101 113 112 112 111 114 117 117 117 
116 116 115 112 99 85 82 79 77 
81 86 88 91 95 99 102 102 101 
104 106 108 104 96 90 86 85 61 
5 21 5 5 5 16 34 70 85 
85 85 82 75 75 82 93 104 114 
117 115 116 114 109 101 92 87 84 
83 91 107 117 115 117 119 119 119 
118 119 114 109 110 110 108 107 97 
87 84 82 80 71 52 45 59 72 
76 76 71 65 64 70 78 81 81 
78 67 57 5 5 63 68 58 71 
85 86 87 89 88 87 86 83 85 
83 78 78 76 78 80 84 92 109 
113 111 111 113 114 116 116 116 115 
115 112 97 85 81 80 82 88 91 
95 102 105 107 108 108 109 111 110 
106 100 94 91 87 84 73 32 5 
5 19 52 84 89 88 90 88 85 
80 84 94 102 112 116 116 116 115 
113 108 100 94 91 90 103 114 117 