# vtk DataFile Version 4.0
vtk output
ASCII
DATASET POLYDATA
POINTS 16788 float
19.4192 -100.5 -9.2675 18.81 -101.097 -9.23765 18.81 -100.5 -9.2675 
17.82 -101.097 -9.23765 17.82 -100.5 -9.2675 16.83 -101.146 -9.23517 
16.83 -100.5 -9.2675 15.84 -101.166 -9.23416 15.84 -100.5 -9.2675 
14.85 -101.214 -9.23176 14.85 -100.5 -9.2675 13.86 -101.239 -9.23055 
13.86 -100.5 -9.2675 12.87 -101.214 -9.23176 12.87 -100.5 -9.2675 
11.88 -101.2 -9.23247 11.88 -100.5 -9.2675 11.165 -100.5 -9.2675 
22.495 -99.5316 -9.316 21.78 -100.231 -9.28097 21.78 -99.5316 -9.316 
20.79 -100.245 -9.28026 20.79 -99.5316 -9.316 19.8 -100.28 -9.27852 
19.8 -99.5316 -9.316 18.81 -99.5316 -9.316 17.82 -99.5316 -9.316 
16.83 -99.5316 -9.316 15.84 -99.5316 -9.316 14.85 -99.5316 -9.316 
13.86 -99.5316 -9.316 12.87 -99.5316 -9.316 11.88 -99.5316 -9.316 
10.89 -100.349 -9.27508 10.89 -99.5316 -9.316 9.9 -100.299 -9.2776 
9.9 -99.5316 -9.316 8.91 -100.258 -9.27962 8.91 -99.5316 -9.316 
8.1675 -99.5316 -9.316 24.4895 -98.5628 -9.3645 23.76 -99.2766 -9.32876 
23.76 -98.5628 -9.3645 22.77 -99.3522 -9.32498 22.77 -98.5628 -9.3645 
21.78 -98.5628 -9.3645 20.79 -98.5628 -9.3645 19.8 -98.5628 -9.3645 
18.81 -98.5628 -9.3645 17.82 -98.5628 -9.3645 16.83 -98.5628 -9.3645 
15.84 -98.5628 -9.3645 14.85 -98.5628 -9.3645 13.86 -98.5628 -9.3645 
12.87 -98.5628 -9.3645 11.88 -98.5628 -9.3645 10.89 -98.5628 -9.3645 
9.9 -98.5628 -9.3645 8.91 -98.5628 -9.3645 7.92 -99.321 -9.32654 
7.92 -98.5628 -9.3645 6.93 -99.321 -9.32654 6.93 -98.5628 -9.3645 
6.15522 -98.5628 -9.3645 -21.015 -98.5628 -9.3645 -21.78 -99.3114 -9.32702 
-21.78 -98.5628 -9.3645 -22.77 -99.2894 -9.32812 -22.77 -98.5628 -9.3645 
-23.76 -99.2467 -9.33027 -23.76 -98.5628 -9.3645 -24.75 -99.2289 -9.33116 
-24.75 -98.5628 -9.3645 -25.4306 -98.5628 -9.3645 27.3664 -97.594 -9.413 
26.73 -98.2168 -9.38182 26.73 -97.594 -9.413 25.74 -98.2168 -9.38182 
25.74 -97.594 -9.413 24.75 -98.3321 -9.37605 24.75 -97.594 -9.413 
23.76 -97.594 -9.413 22.77 -97.594 -9.413 21.78 -97.594 -9.413 
20.79 -97.594 -9.413 19.8 -97.594 -9.413 18.81 -97.594 -9.413 
17.82 -97.594 -9.413 16.83 -97.594 -9.413 15.84 -97.594 -9.413 
14.85 -97.594 -9.413 13.86 -97.594 -9.413 12.87 -97.594 -9.413 
11.88 -97.594 -9.413 10.89 -97.594 -9.413 9.9 -97.594 -9.413 
8.91 -97.594 -9.413 7.92 -97.594 -9.413 6.93 -97.594 -9.413 
5.94 -98.361 -9.3746 5.94 -97.594 -9.413 5.15625 -97.594 -9.413 
-17.0204 -97.594 -9.413 -17.82 -98.3765 -9.37383 -17.82 -97.594 -9.413 
-18.6196 -97.594 -9.413 -18.9514 -97.594 -9.413 -19.8 -98.4244 -9.37143 
-19.8 -97.594 -9.413 -20.79 -98.4501 -9.37014 -20.79 -97.594 -9.413 
-21.78 -97.594 -9.413 -22.77 -97.594 -9.413 -23.76 -97.594 -9.413 
-24.75 -97.594 -9.413 -25.74 -98.3206 -9.37663 -25.74 -97.594 -9.413 
-26.73 -98.26 -9.37966 -26.73 -97.594 -9.413 -27.4106 -97.594 -9.413 
28.4006 -96.6252 -9.4615 27.72 -97.2913 -9.42816 27.72 -96.6252 -9.4615 
26.73 -96.6252 -9.4615 25.74 -96.6252 -9.4615 24.75 -96.6252 -9.4615 
23.76 -96.6252 -9.4615 22.77 -96.6252 -9.4615 21.78 -96.6252 -9.4615 
20.79 -96.6252 -9.4615 19.8 -96.6252 -9.4615 18.81 -96.6252 -9.4615 
17.82 -96.6252 -9.4615 16.83 -96.6252 -9.4615 15.84 -96.6252 -9.4615 
14.85 -96.6252 -9.4615 13.86 -96.6252 -9.4615 12.87 -96.6252 -9.4615 
11.88 -96.6252 -9.4615 10.89 -96.6252 -9.4615 9.9 -96.6252 -9.4615 
8.91 -96.6252 -9.4615 7.92 -96.6252 -9.4615 6.93 -96.6252 -9.4615 
5.94 -96.6252 -9.4615 4.95 -97.4146 -9.42198 4.95 -96.6252 -9.4615 
4.14333 -96.6252 -9.4615 -14.9576 -96.6252 -9.4615 -15.84 -97.4887 -9.41827 
-15.84 -96.6252 -9.4615 -16.83 -97.4971 -9.41785 -16.83 -96.6252 -9.4615 
-17.82 -96.6252 -9.4615 -18.81 -97.5075 -9.41733 -18.81 -96.6252 -9.4615 
-19.8 -96.6252 -9.4615 -20.79 -96.6252 -9.4615 -21.78 -96.6252 -9.4615 
-22.77 -96.6252 -9.4615 -23.76 -96.6252 -9.4615 -24.75 -96.6252 -9.4615 
-25.74 -96.6252 -9.4615 -26.73 -96.6252 -9.4615 -27.72 -97.3391 -9.42576 
-27.72 -96.6252 -9.4615 -28.4495 -96.6252 -9.4615 27.72 -95.9592 -9.49484 
27.5653 -95.6564 -9.51 26.73 -95.6564 -9.51 25.74 -95.6564 -9.51 
24.75 -95.6564 -9.51 23.76 -95.6564 -9.51 22.77 -95.6564 -9.51 
21.78 -95.6564 -9.51 20.79 -95.6564 -9.51 19.8 -95.6564 -9.51 
18.81 -95.6564 -9.51 17.82 -95.6564 -9.51 16.83 -95.6564 -9.51 
15.84 -95.6564 -9.51 14.85 -95.6564 -9.51 13.86 -95.6564 -9.51 
12.87 -95.6564 -9.51 11.88 -95.6564 -9.51 10.89 -95.6564 -9.51 
9.9 -95.6564 -9.51 8.91 -95.6564 -9.51 7.92 -95.6564 -9.51 
6.93 -95.6564 -9.51 5.94 -95.6564 -9.51 4.95 -95.6564 -9.51 
4.13679 -95.6564 -9.51 -15.84 -95.7617 -9.50473 -16.83 -95.7533 -9.50515 
-16.9111 -95.6564 -9.51 -17.82 -95.6564 -9.51 -18.81 -95.6564 -9.51 
-19.8 -95.6564 -9.51 -20.79 -95.6564 -9.51 -21.78 -95.6564 -9.51 
-22.77 -95.6564 -9.51 -23.76 -95.6564 -9.51 -24.75 -95.6564 -9.51 
-25.74 -95.6564 -9.51 -26.73 -95.6564 -9.51 -27.72 -95.6564 -9.51 
-28.71 -96.405 -9.47252 -28.71 -95.6564 -9.51 -29.7 -96.2526 -9.48015 
-29.7 -95.6564 -9.51 -30.3092 -95.6564 -9.51 30.4543 -94.6876 -9.5585 
29.7 -95.4257 -9.52155 29.7 -94.6876 -9.5585 28.71 -95.5139 -9.51713 
28.71 -94.6876 -9.5585 27.72 -95.5614 -9.51476 27.72 -94.6876 -9.5585 
26.73 -94.6876 -9.5585 25.74 -94.6876 -9.5585 24.75 -94.6876 -9.5585 
23.76 -94.6876 -9.5585 22.77 -94.6876 -9.5585 21.78 -94.6876 -9.5585 
20.79 -94.6876 -9.5585 19.8 -94.6876 -9.5585 18.81 -94.6876 -9.5585 
17.82 -94.6876 -9.5585 16.83 -94.6876 -9.5585 15.84 -94.6876 -9.5585 
14.85 -94.6876 -9.5585 13.86 -94.6876 -9.5585 12.87 -94.6876 -9.5585 
11.88 -94.6876 -9.5585 10.89 -94.6876 -9.5585 9.9 -94.6876 -9.5585 
8.91 -94.6876 -9.5585 7.92 -94.6876 -9.5585 6.93 -94.6876 -9.5585 
5.94 -94.6876 -9.5585 4.95 -94.6876 -9.5585 4.05519 -94.6876 -9.5585 
-16.9153 -94.6876 -9.5585 -17.82 -94.6876 -9.5585 -18.81 -94.6876 -9.5585 
-19.8 -94.6876 -9.5585 -20.79 -94.6876 -9.5585 -21.78 -94.6876 -9.5585 
-22.77 -94.6876 -9.5585 -23.76 -94.6876 -9.5585 -24.75 -94.6876 -9.5585 
-25.74 -94.6876 -9.5585 -26.73 -94.6876 -9.5585 -27.72 -94.6876 -9.5585 
-28.71 -94.6876 -9.5585 -29.7 -94.6876 -9.5585 -30.69 -95.3335 -9.52617 
-30.69 -94.6876 -9.5585 -31.35 -94.6876 -9.5585 31.5032 -93.7188 -9.607 
30.69 -94.5146 -9.56716 30.69 -93.7188 -9.607 29.7 -93.7188 -9.607 
28.71 -93.7188 -9.607 27.72 -93.7188 -9.607 26.73 -93.7188 -9.607 
25.74 -93.7188 -9.607 24.75 -93.7188 -9.607 23.76 -93.7188 -9.607 
22.77 -93.7188 -9.607 21.78 -93.7188 -9.607 20.79 -93.7188 -9.607 
19.8 -93.7188 -9.607 18.81 -93.7188 -9.607 17.82 -93.7188 -9.607 
16.83 -93.7188 -9.607 15.84 -93.7188 -9.607 14.85 -93.7188 -9.607 
13.86 -93.7188 -9.607 12.87 -93.7188 -9.607 11.88 -93.7188 -9.607 
10.89 -93.7188 -9.607 9.9 -93.7188 -9.607 8.91 -93.7188 -9.607 
7.92 -93.7188 -9.607 6.93 -93.7188 -9.607 5.94 -93.7188 -9.607 
4.95 -93.7188 -9.607 3.96 -94.6131 -9.56223 3.96 -93.7188 -9.607 
3.04615 -93.7188 -9.607 -13.9386 -93.7188 -9.607 -14.85 -94.6107 -9.56235 
-14.85 -93.7188 -9.607 -15.84 -94.6041 -9.56268 -15.84 -93.7188 -9.607 
-16.83 -94.5995 -9.56291 -16.83 -93.7188 -9.607 -17.82 -93.7188 -9.607 
-18.81 -93.7188 -9.607 -19.8 -93.7188 -9.607 -20.79 -93.7188 -9.607 
-21.78 -93.7188 -9.607 -22.77 -93.7188 -9.607 -23.76 -93.7188 -9.607 
-24.75 -93.7188 -9.607 -25.74 -93.7188 -9.607 -26.73 -93.7188 -9.607 
-27.72 -93.7188 -9.607 -28.71 -93.7188 -9.607 -29.7 -93.7188 -9.607 
-30.69 -93.7188 -9.607 -31.68 -94.4454 -9.57063 -31.68 -93.7188 -9.607 
-32.67 -94.3416 -9.57582 -32.67 -93.7188 -9.607 -33.3064 -93.7188 -9.607 
32.5431 -92.75 -9.6555 31.68 -93.5946 -9.61322 31.68 -92.75 -9.6555 
30.69 -92.75 -9.6555 29.7 -92.75 -9.6555 28.71 -92.75 -9.6555 
27.72 -92.75 -9.6555 26.73 -92.75 -9.6555 25.74 -92.75 -9.6555 
24.75 -92.75 -9.6555 23.76 -92.75 -9.6555 22.77 -92.75 -9.6555 
21.78 -92.75 -9.6555 20.79 -92.75 -9.6555 19.8 -92.75 -9.6555 
18.81 -92.75 -9.6555 17.82 -92.75 -9.6555 16.83 -92.75 -9.6555 
15.84 -92.75 -9.6555 14.85 -92.75 -9.6555 13.86 -92.75 -9.6555 
12.87 -92.75 -9.6555 11.88 -92.75 -9.6555 10.89 -92.75 -9.6555 
9.9 -92.75 -9.6555 8.91 -92.75 -9.6555 7.92 -92.75 -9.6555 
6.93 -92.75 -9.6555 5.94 -92.75 -9.6555 4.95 -92.75 -9.6555 
3.96 -92.75 -9.6555 3.03875 -92.75 -9.6555 -13.9339 -92.75 -9.6555 
-14.85 -92.75 -9.6555 -15.84 -92.75 -9.6555 -16.83 -92.75 -9.6555 
-17.82 -92.75 -9.6555 -18.81 -92.75 -9.6555 -19.8 -92.75 -9.6555 
-20.79 -92.75 -9.6555 -21.78 -92.75 -9.6555 -22.77 -92.75 -9.6555 
-23.76 -92.75 -9.6555 -24.75 -92.75 -9.6555 -25.74 -92.75 -9.6555 
-26.73 -92.75 -9.6555 -27.72 -92.75 -9.6555 -28.71 -92.75 -9.6555 
-29.7 -92.75 -9.6555 -30.69 -92.75 -9.6555 -31.68 -92.75 -9.6555 
-32.67 -92.75 -9.6555 -33.66 -93.4339 -9.62126 -33.66 -92.75 -9.6555 
-34.3588 -92.75 -9.6555 34.425 -91.7812 -9.704 33.66 -92.5298 -9.66652 
33.66 -91.7812 -9.704 32.67 -92.6424 -9.66089 32.67 -91.7812 -9.704 
31.68 -91.7812 -9.704 30.69 -91.7812 -9.704 29.7 -91.7812 -9.704 
28.71 -91.7812 -9.704 27.72 -91.7812 -9.704 26.73 -91.7812 -9.704 
25.74 -91.7812 -9.704 24.75 -91.7812 -9.704 23.76 -91.7812 -9.704 
22.77 -91.7812 -9.704 21.78 -91.7812 -9.704 20.79 -91.7812 -9.704 
19.8 -91.7812 -9.704 18.81 -91.7812 -9.704 17.82 -91.7812 -9.704 
16.83 -91.7812 -9.704 15.84 -91.7812 -9.704 14.85 -91.7812 -9.704 
13.86 -91.7812 -9.704 12.87 -91.7812 -9.704 11.88 -91.7812 -9.704 
10.89 -91.7812 -9.704 9.9 -91.7812 -9.704 8.91 -91.7812 -9.704 
7.92 -91.7812 -9.704 6.93 -91.7812 -9.704 5.94 -91.7812 -9.704 
4.95 -91.7812 -9.704 3.96 -91.7812 -9.704 3.04388 -91.7812 -9.704 
-14.85 -91.8535 -9.70038 -15.84 -91.8606 -9.70002 -16.83 -91.8633 -9.69989 
-17.82 -91.8514 -9.70049 -18.81 -91.8467 -9.70072 -18.8778 -91.7812 -9.704 
-19.8 -91.7812 -9.704 -20.79 -91.7812 -9.704 -21.78 -91.7812 -9.704 
-22.77 -91.7812 -9.704 -23.76 -91.7812 -9.704 -24.75 -91.7812 -9.704 
-25.74 -91.7812 -9.704 -26.73 -91.7812 -9.704 -27.72 -91.7812 -9.704 
-28.71 -91.7812 -9.704 -29.7 -91.7812 -9.704 -30.69 -91.7812 -9.704 
-31.68 -91.7812 -9.704 -32.67 -91.7812 -9.704 -33.66 -91.7812 -9.704 
-34.65 -92.5078 -9.66763 -34.65 -91.7812 -9.704 -35.64 -92.4271 -9.67167 
[...]
POINT_DATA 16788
SCALARS scalars float
LOOKUP_TABLE default
5 5 13 5 13 5 15 5 16 
5 19 5 21 5 19 5 18 5 
5 5 18 5 19 5 22 26 30 
34 40 45 45 44 39 5 32 5 
24 5 20 5 5 5 19 5 27 
36 41 42 47 56 63 72 78 78 
76 70 60 47 35 5 23 5 23 
5 5 5 22 5 20 5 17 5 
16 5 5 5 14 5 14 5 21 
40 58 67 67 61 60 70 81 90 
92 91 88 82 79 73 59 39 25 
5 24 5 5 5 26 5 5 5 
35 5 43 44 44 38 28 5 20 
5 16 5 5 5 16 17 25 47 
71 82 86 84 71 61 74 90 94 
94 91 89 91 91 84 73 58 40 
27 5 27 5 5 5 46 5 50 
54 5 56 58 63 66 69 66 58 
45 28 5 19 5 5 5 32 48 
72 88 93 94 91 76 56 69 89 
94 90 83 83 90 92 85 78 73 
58 40 28 5 5 5 5 61 64 
71 76 79 81 82 80 74 61 40 
5 22 5 13 5 5 5 21 5 
34 5 51 60 71 87 93 97 98 
94 80 53 59 83 88 82 77 82 
94 94 88 80 75 73 68 52 5 
5 58 66 75 84 87 87 89 88 
87 82 70 48 26 5 15 5 5 
5 28 51 71 83 84 89 95 98 
101 99 95 85 57 50 68 75 74 
78 90 98 96 90 80 73 71 72 
71 5 65 5 5 5 63 5 58 
5 55 60 70 77 83 86 87 92 
94 95 93 87 73 52 31 5 20 
5 14 5 5 5 39 64 83 92 
95 97 100 104 108 106 102 96 89 
68 49 55 61 64 78 91 95 95 
86 76 69 64 64 68 72 5 5 
67 61 59 69 74 77 80 82 85 
91 91 96 99 95 84 67 50 36 
26 5 17 5 5 5 22 5 45 
72 87 94 99 103 104 106 110 110 
108 105 98 92 82 64 53 49 57 
79 93 92 89 80 72 64 57 57 
62 67 5 5 5 5 5 5 5 
73 75 78 83 88 90 95 98 95 
87 72 60 54 49 34 5 20 5 
15 5 5 5 26 49 77 88 92 
98 105 102 97 96 98 100 103 103 
101 96 92 83 68 50 50 76 89 
90 86 77 69 61 56 55 60 63 
5 5 5 62 63 68 75 79 82 
85 90 93 88 78 68 64 64 63 
55 37 5 5 5 5 14 5 5 
51 75 87 92 98 103 100 93 85 
82 88 92 95 100 103 102 97 93 
84 69 55 65 79 84 82 74 67 
61 60 59 60 62 5 5 57 58 
62 66 71 73 77 83 84 76 69 
65 62 64 65 65 56 5 40 5 
23 5 16 5 5 5 5 54 72 
84 90 93 98 98 96 90 80 72 
75 86 94 98 101 102 101 97 89 
79 61 53 67 76 76 72 66 65 
63 63 62 62 5 64 5 5 60 
58 54 56 59 64 72 75 73 68 
63 63 69 77 81 78 69 60 47 
5 5 5 5 55 69 74 81 87 
91 92 94 92 87 83 76 70 75 
85 92 96 98 98 96 91 83 69 
55 58 68 71 70 67 64 61 61 
62 62 5 5 5 60 59 56 55 
57 60 63 64 63 63 63 68 81 
89 91 89 81 67 59 5 55 5 
39 5 5 5 59 68 72 74 76 
75 76 77 79 81 83 82 80 73 
69 71 80 89 94 95 93 90 81 
73 63 57 63 67 69 68 61 57 
59 5 5 5 60 5 5 5 68 
5 70 5 72 5 70 5 5 64 
59 57 54 54 54 54 51 53 61 
66 74 87 94 95 95 91 78 64 
61 60 5 48 5 33 5 5 5 
58 64 67 70 71 68 66 67 67 
69 73 74 73 70 70 66 61 63 
76 87 90 91 88 80 73 68 62 
61 64 65 63 58 55 56 5 5 
54 5 5 5 5 72 69 5 65 
63 60 58 55 52 50 47 41 51 
63 64 75 88 93 96 96 92 87 
81 70 63 61 54 5 42 5 26 
5 18 5 5 5 57 62 65 63 
61 61 61 61 62 64 64 67 69 
68 67 63 54 57 69 79 84 82 
76 72 70 64 59 66 73 72 5 
5 5 5 5 5 66 64 62 58 
55 55 56 57 56 53 49 56 66 
64 72 81 87 91 94 93 91 90 
87 75 65 63 60 5 5 5 5 
5 48 5 52 5 55 5 52 49 
50 51 54 58 61 64 62 62 67 
72 77 80 79 77 70 61 56 57 
66 75 74 71 67 64 60 57 62 
72 77 5 5 5 59 5 58 5 
59 5 60 58 59 60 57 52 51 
49 52 56 57 58 59 59 56 63 
73 81 87 92 94 92 91 89 84 
78 69 62 5 66 5 59 5 38 
5 5 5 5 5 5 38 41 49 
60 63 70 75 79 80 85 89 88 
87 87 85 82 77 70 64 61 65 
67 65 60 53 5 5 5 5 5 
5 5 5 5 5 5 66 64 64 
63 61 58 52 52 54 55 59 57 
52 48 55 64 69 78 84 89 93 
94 89 87 82 78 72 66 68 5 
5 5 5 40 41 52 71 81 83 
86 88 89 89 91 93 92 91 88 
86 84 81 78 76 72 5 5 5 
5 5 5 5 5 5 5 5 66 
64 63 63 61 59 60 57 53 48 
50 53 55 68 79 83 87 88 87 
89 88 82 78 72 66 5 68 5 
64 5 39 5 5 48 59 74 86 
88 89 90 92 92 94 93 94 92 
91 88 85 83 81 79 77 5 5 
5 5 5 5 5 5 5 5 59 
53 46 49 52 53 63 69 75 80 
82 83 85 88 85 78 74 70 66 
71 64 5 5 5 60 5 58 68 
79 85 88 89 91 92 94 95 94 
92 91 89 87 82 80 80 80 5 
5 5 5 61 55 47 45 49 52 
59 62 66 72 74 80 85 84 84 
79 75 71 70 71 75 5 59 5 
5 5 62 65 71 79 86 88 90 
92 91 92 93 94 93 90 89 86 
83 80 80 81 83 5 5 70 63 
54 47 46 48 53 59 64 69 72 
78 82 79 77 77 77 74 72 72 
74 76 5 51 5 5 5 59 63 
72 79 83 87 91 91 91 92 91 
91 92 92 88 84 85 83 83 82 
5 5 5 5 73 66 60 54 51 
48 49 52 57 63 66 72 74 74 
71 72 74 73 73 72 71 77 70 
5 5 60 70 77 81 83 88 89 
90 89 87 87 88 87 87 85 82 
83 84 82 5 5 5 79 71 66 
64 65 63 62 58 60 60 60 62 
64 64 63 65 70 72 73 72 70 
71 77 5 5 5 36 5 48 5 
5 64 76 79 81 86 87 85 86 
84 81 82 83 82 81 80 80 80 
80 5 5 5 79 76 71 69 70 
71 73 73 72 70 63 57 55 54 
53 57 64 69 69 70 70 64 69 
5 5 5 29 44 52 5 51 5 
5 5 59 69 79 80 81 86 86 
84 81 77 74 74 75 76 75 75 
77 75 75 5 5 77 77 75 73 
71 74 78 80 79 80 75 67 58 
51 49 55 64 67 69 67 66 64 
66 5 5 43 56 58 58 5 63 
5 62 60 73 80 80 82 84 83 
82 76 69 66 68 70 72 72 74 
77 5 5 5 5 80 79 78 73 
70 75 80 82 82 82 82 80 72 
57 49 59 67 71 73 70 66 64 
63 5 5 5 23 5 39 60 67 
64 63 65 59 60 77 82 82 82 
82 82 77 71 63 58 63 67 70 
70 71 73 5 5 81 81 79 73 
71 76 84 87 87 87 87 87 83 
70 54 60 69 73 75 77 73 67 
63 5 5 38 62 71 70 67 67 
67 54 60 79 84 85 84 83 83 
78 74 65 55 54 58 61 65 68 
5 5 5 80 79 76 71 69 76 
88 92 91 91 90 91 90 84 63 
58 67 73 76 78 76 70 64 5 
5 5 15 5 21 5 36 61 71 
73 71 70 68 61 51 64 77 83 
86 85 85 85 82 80 76 68 58 
53 53 61 71 5 5 76 75 71 
66 68 80 88 92 95 95 95 94 
90 88 76 63 66 74 77 78 74 
72 69 5 5 23 39 60 68 72 
73 73 70 66 57 52 68 77 82 
85 87 86 86 86 84 81 79 75 
70 63 62 72 5 5 74 71 67 
64 73 85 90 92 95 98 99 97 
92 90 82 70 69 75 77 78 75 
68 67 5 5 5 21 42 66 68 
66 71 72 71 68 64 56 57 72 
79 84 85 85 85 88 86 86 86 
83 82 79 76 72 69 5 5 78 
73 63 65 80 87 90 92 95 100 
101 100 96 89 85 74 71 76 79 
79 78 67 57 5 5 5 59 5 
5 34 64 77 72 68 71 72 72 
71 68 60 63 79 83 86 86 86 
85 87 89 89 86 85 83 79 78 
75 73 5 5 76 72 67 77 87 
90 92 94 97 101 103 101 98 90 
84 76 73 77 82 82 81 71 51 
5 5 61 5 5 49 67 65 65 
66 72 75 76 74 70 57 63 81 
86 87 87 88 88 86 90 90 88 
87 84 81 79 78 80 5 80 5 
5 73 69 74 83 87 91 93 94 
96 100 103 103 98 92 85 80 77 
80 84 84 81 73 51 5 41 52 
5 60 5 5 5 35 5 5 5 
18 5 41 60 62 64 68 73 80 
83 80 76 67 56 68 84 87 89 
87 88 89 88 88 88 85 85 84 
83 78 76 78 76 5 5 75 69 
75 82 88 89 91 94 97 101 104 
103 99 94 88 81 79 82 84 83 
81 70 55 52 58 58 5 59 52 
5 5 36 62 72 77 81 81 84 
85 84 81 74 63 65 80 86 89 
92 90 86 83 84 85 83 77 80 
82 81 78 75 78 80 5 5 75 
67 71 79 86 90 93 95 97 101 
104 104 100 95 90 85 81 81 82 
84 80 64 57 63 65 60 59 65 
5 57 5 5 5 14 5 5 5 
28 57 73 76 82 84 84 85 85 
84 79 70 64 76 85 88 92 93 
91 85 79 77 77 69 65 74 82 
80 78 75 79 5 5 5 74 66 
66 72 81 87 90 94 98 101 102 
104 101 95 91 84 80 79 80 83 
80 72 70 69 66 61 59 66 71 
5 60 5 5 5 15 5 5 5 
5 28 52 66 71 76 81 81 84 
84 82 80 75 68 72 85 87 92 
95 95 91 83 76 68 63 55 51 
67 79 81 78 74 77 5 78 5 
74 5 5 77 69 60 58 68 81 
87 91 97 101 104 105 101 98 92 
84 80 79 80 82 83 80 77 74 
69 64 59 62 71 78 5 5 36 
5 5 5 15 5 29 54 65 68 
72 75 77 78 78 79 77 75 71 
68 79 86 88 97 98 94 88 80 
75 66 58 51 48 61 72 76 75 
70 70 75 5 5 5 74 72 68 
59 54 72 85 89 95 101 105 105 
102 99 94 89 85 81 82 81 80 
79 78 76 73 70 68 68 75 80 
5 81 66 5 35 5 5 5 13 
5 16 30 58 73 75 77 77 76 
76 76 74 73 72 69 68 71 83 
87 90 99 102 96 89 84 82 76 
68 57 53 55 61 69 71 67 71 
76 5 5 71 72 68 60 51 67 
85 88 92 99 104 106 106 103 98 
94 87 84 84 78 77 79 79 79 
79 78 80 79 81 84 84 79 59 
5 32 5 5 16 33 64 80 82 
84 82 80 78 78 77 75 72 69 
62 61 72 87 88 93 100 105 102 
94 89 86 85 82 75 64 55 54 
60 66 70 74 74 5 76 5 5 
71 69 64 56 46 58 79 87 90 
94 98 100 104 104 102 97 90 87 
83 75 75 79 81 82 83 83 84 
87 87 88 89 85 76 56 5 5 
5 14 30 61 81 84 87 87 87 
86 85 81 79 77 75 75 65 56 
69 87 86 92 100 106 108 103 96 
92 91 88 83 75 61 51 56 70 
77 75 74 76 5 5 67 65 58 
51 44 50 69 81 87 87 89 93 
98 104 106 101 91 85 80 72 78 
83 84 86 89 90 92 93 94 94 
92 88 83 71 5 5 5 13 24 
54 79 83 85 90 92 93 90 89 
86 83 82 81 81 74 63 68 83 
85 90 100 107 108 106 104 100 97 
90 87 80 67 52 57 69 77 78 
79 79 5 5 5 59 62 65 65 
61 55 56 67 74 79 81 84 86 
93 103 108 101 89 84 79 75 83 
86 91 93 94 96 98 99 101 97 
92 90 87 81 5 55 5 5 16 
39 71 80 85 86 91 101 102 98 
95 93 91 91 87 86 83 74 71 
81 86 89 98 102 104 105 107 104 
100 92 88 83 72 55 59 68 76 
80 79 77 5 5 68 68 72 76 
75 73 77 81 81 80 79 81 83 
93 104 107 97 85 81 78 81 86 
89 94 98 100 103 106 106 103 97 
93 91 87 84 68 5 5 5 14 
25 53 74 79 84 85 90 102 107 
106 103 99 96 94 91 88 84 79 
73 79 86 88 94 97 96 97 105 
106 104 96 88 85 77 59 55 67 
74 77 77 79 5 83 5 5 76 
75 78 82 80 79 84 87 87 87 
86 86 90 100 109 102 91 84 80 
79 83 87 90 96 100 104 108 107 
105 101 97 92 91 90 86 73 5 
52 5 5 5 34 57 68 78 82 
84 85 92 105 111 106 101 97 96 
92 87 85 82 75 76 84 87 88 
91 91 89 97 106 107 102 91 86 
82 66 52 62 69 71 73 77 77 
5 5 5 80 78 79 80 81 81 
83 87 89 91 92 92 96 102 110 
108 94 86 84 80 81 85 86 89 
94 97 102 111 108 100 94 92 89 
89 90 85 69 63 5 5 5 15 
5 26 46 57 65 78 79 80 81 
87 101 109 106 97 92 92 90 85 
83 82 75 70 78 84 85 85 85 
84 88 98 105 105 96 87 85 74 
54 56 63 66 69 72 76 5 5 
76 74 76 80 79 76 81 87 90 
93 99 103 108 110 111 102 90 84 
82 79 79 83 84 85 89 92 100 
111 105 94 86 85 86 85 86 82 
65 67 5 52 5 5 5 17 17 
33 54 60 67 77 78 78 78 85 
97 106 106 93 85 83 85 84 82 
80 77 68 72 81 84 84 82 79 
80 89 103 108 102 91 85 79 64 
57 60 62 63 69 77 5 5 79 
74 75 77 77 73 79 86 89 96 
104 108 113 114 107 95 85 80 79 
79 77 80 81 81 83 88 100 112 
101 87 83 80 80 81 80 77 64 
68 64 5 36 5 5 16 24 48 
63 67 73 76 78 77 78 84 93 
105 107 91 83 79 77 80 80 79 
77 68 66 77 82 81 78 76 79 
84 96 110 108 96 86 83 76 64 
58 57 58 64 71 5 5 5 78 
76 77 70 64 78 85 89 97 105 
109 114 113 102 91 85 80 80 81 
79 76 70 72 78 87 102 112 97 
84 80 76 76 79 78 75 66 65 
71 52 5 22 5 5 18 37 62 
73 80 82 79 81 80 80 84 91 
104 110 99 86 81 77 76 77 79 
76 71 67 74 78 75 71 66 73 
82 90 106 111 102 91 85 83 75 
63 56 54 58 62 5 73 5 5 
5 78 76 75 77 70 61 75 85 
88 95 106 111 114 110 100 91 86 
83 84 83 81 71 62 68 80 89 
105 111 93 83 77 74 74 78 79 
78 76 68 72 64 34 5 5 5 
15 27 54 71 79 84 85 85 87 
87 86 90 95 103 109 109 95 83 
78 75 77 77 77 77 71 73 76 
73 67 59 66 80 85 97 109 109 
97 87 86 84 75 61 53 55 62 
75 5 5 5 70 72 75 77 78 
73 63 69 83 87 93 106 110 112 
112 102 91 87 87 86 84 82 68 
61 73 85 93 110 108 89 81 74 
73 77 79 82 84 86 80 74 72 
52 5 19 5 5 17 38 65 78 
82 86 88 90 91 93 93 96 98 
105 111 113 105 92 83 78 76 74 
76 79 76 76 78 76 71 59 59 
76 83 91 104 110 103 92 87 85 
82 74 65 64 70 72 5 5 68 
69 73 77 80 79 69 68 82 88 
92 105 112 113 112 105 98 93 90 
87 84 83 70 71 82 90 101 114 
107 89 80 73 75 82 84 86 86 
86 86 80 73 63 33 5 5 5 
13 22 50 75 83 86 89 94 96 
97 98 98 99 99 102 109 112 113 
106 92 82 77 76 76 79 82 82 
82 80 79 69 55 68 81 86 97 
109 107 99 91 85 84 80 75 73 
73 73 5 5 69 68 73 79 84 
85 77 73 78 84 86 98 111 114 
113 109 103 98 92 85 85 83 75 
79 87 94 110 116 107 90 82 79 
81 85 89 89 90 87 86 82 71 
62 49 5 5 12 31 61 79 84 
88 91 96 97 99 100 100 99 97 
97 102 109 112 110 104 95 86 82 
80 84 86 87 86 84 81 78 65 
64 77 85 95 108 107 103 96 89 
85 81 79 77 76 73 5 74 5 
5 73 70 75 84 87 86 83 76 
76 82 85 89 102 111 112 112 109 
103 92 85 84 79 76 82 89 102 
115 115 109 96 88 85 85 88 94 
96 94 87 84 82 71 58 57 5 
35 5 5 15 40 67 81 84 89 
94 96 98 102 101 100 96 92 90 
92 102 110 112 109 105 98 90 86 
88 90 91 91 88 83 82 75 66 
73 82 91 105 107 100 93 88 86 
83 81 79 77 74 75 5 74 5 
5 72 73 79 83 86 86 86 80 
75 76 82 85 92 108 112 112 110 
101 88 86 80 74 77 84 92 107 
115 113 111 103 95 94 96 96 100 
104 98 89 82 80 75 68 66 53 
5 31 5 5 20 49 73 84 86 
89 96 99 102 102 101 97 92 86 
83 84 93 102 111 111 108 105 102 
98 96 97 99 100 96 88 83 80 
70 73 81 88 102 106 94 87 82 
83 82 81 78 76 72 70 71 5 
75 5 5 5 73 70 75 81 83 
84 85 84 81 76 73 78 84 85 
100 109 111 107 95 84 83 70 65 
78 86 96 111 115 113 112 108 105 
105 107 107 107 105 101 93 83 79 
81 82 82 75 55 5 40 5 5 
23 54 77 84 86 90 98 99 103 
102 98 94 88 83 79 79 84 95 
107 111 108 107 109 108 105 104 105 
105 103 92 84 82 75 74 79 88 
102 106 89 79 74 75 77 76 74 
70 64 62 66 76 5 5 68 73 
78 83 82 81 83 83 81 75 66 
66 78 83 91 104 108 102 87 82 
77 70 73 82 89 102 114 114 113 
112 111 109 107 108 110 108 103 106 
103 91 85 86 87 87 86 73 56 
5 33 5 5 5 14 27 56 76 
85 87 92 98 104 105 102 97 91 
84 79 74 77 78 87 101 107 108 
107 110 110 107 104 106 108 109 98 
86 83 77 74 79 88 102 105 87 
78 75 74 77 78 77 74 68 61 
61 70 5 5 5 77 67 71 77 
74 73 75 77 77 75 73 65 59 
69 82 87 102 109 99 85 81 71 
77 85 87 95 108 114 113 112 108 
103 100 101 104 105 106 106 112 111 
103 96 91 87 87 88 82 71 46 
5 5 13 26 55 76 85 87 91 
97 104 108 105 99 90 83 78 76 
78 78 82 95 106 111 109 110 108 
102 99 100 103 109 103 86 82 76 
72 79 90 102 106 91 83 81 81 
82 80 79 79 76 72 68 68 5 
5 75 71 71 70 64 64 71 72 
73 74 76 73 69 70 79 85 102 
111 98 86 75 66 79 86 89 101 
112 112 113 112 102 92 89 90 93 
97 101 107 112 114 113 110 103 95 
88 89 86 79 53 5 5 12 27 
55 78 86 85 88 94 99 107 106 
99 90 83 79 78 76 76 77 87 
101 110 111 111 109 99 93 90 96 
106 105 90 83 77 73 79 90 104 
107 101 96 93 91 90 86 83 80 
80 78 73 70 5 5 5 65 64 
68 67 62 65 68 72 76 79 80 
81 81 82 79 82 87 102 110 98 
86 72 66 79 84 89 103 113 113 
113 110 96 83 82 82 87 92 99 
105 111 114 117 116 112 106 97 90 
85 83 63 5 5 13 27 50 70 
81 84 86 92 99 108 109 103 93 
83 80 78 74 74 76 79 88 100 
111 110 108 98 88 82 85 96 105 
96 84 79 78 83 97 108 105 104 
102 101 100 98 93 88 84 82 80 
77 74 5 5 70 60 64 63 64 
73 79 81 83 84 84 86 88 89 
88 88 96 108 112 101 87 75 69 
76 82 89 99 111 114 112 109 92 
81 79 80 84 89 97 107 112 114 
114 113 110 107 100 92 89 86 68 
5 5 12 25 47 64 75 83 85 
88 95 105 109 107 98 88 84 80 
78 75 77 78 81 88 102 109 109 
100 87 79 79 87 100 101 90 83 
84 91 104 105 98 95 92 91 92 
91 89 90 88 83 81 80 76 5 
73 5 5 68 64 67 68 76 82 
82 84 87 90 94 98 101 101 101 
103 109 111 111 106 93 81 76 77 
81 88 99 109 112 113 108 89 80 
78 80 83 89 96 106 113 115 111 
105 100 97 95 91 89 87 71 5 
5 13 24 47 57 66 78 83 85 
90 99 108 110 102 93 86 83 81 
77 76 75 77 81 89 107 112 105 
91 78 76 81 91 104 102 99 100 
101 98 89 85 82 81 81 80 79 
80 82 86 85 82 81 79 76 5 
77 5 5 5 77 67 68 75 82 
83 84 87 91 99 104 109 110 111 
111 106 108 112 111 109 110 105 92 
84 80 83 89 100 111 113 114 106 
88 81 79 79 82 90 99 108 114 
113 106 96 91 88 88 88 86 85 
69 5 5 16 27 49 56 65 75 
81 84 87 93 103 111 109 99 90 
85 82 81 77 74 75 78 82 100 
111 108 95 80 77 78 84 101 108 
107 104 95 84 80 78 77 77 77 
77 76 77 78 83 87 84 83 83 
78 72 5 5 70 67 73 82 86 
86 88 96 102 110 112 112 113 113 
113 110 108 111 112 110 112 112 104 
95 90 89 94 106 113 112 116 107 
87 81 80 79 82 91 100 110 112 
109 102 91 87 86 86 88 87 84 
64 5 5 15 32 57 71 78 79 
79 82 85 90 99 108 111 104 95 
89 85 82 79 74 69 73 80 94 
111 111 98 83 78 77 81 95 107 
105 96 85 77 76 79 81 81 81 
80 81 83 84 88 94 92 87 81 
78 71 5 5 63 67 78 85 86 
88 94 103 106 113 114 114 114 114 
111 111 111 111 109 108 110 113 112 
106 102 101 105 111 115 113 115 106 
87 80 77 77 82 89 101 110 109 
104 96 88 87 86 85 86 81 73 
53 5 5 16 44 74 86 84 82 
80 81 83 90 98 107 110 104 97 
89 84 80 77 73 69 74 81 93 
112 115 104 88 78 76 80 88 101 
100 87 80 76 75 80 84 90 92 
90 93 96 98 99 102 98 90 83 
79 74 5 5 5 73 66 72 82 
87 89 94 100 106 108 111 111 111 
112 116 114 110 110 110 107 104 108 
110 111 111 110 111 113 115 116 115 
115 105 89 80 77 77 83 90 102 
110 109 102 93 87 86 84 80 81 
74 63 48 5 5 22 61 89 93 
89 86 84 84 83 90 100 110 107 
98 92 87 84 80 78 77 79 81 
85 100 113 116 109 92 79 77 81 
86 94 91 83 79 76 77 83 90 
100 104 103 106 108 108 108 107 102 
97 90 83 77 5 69 5 62 5 
5 66 68 77 83 85 88 97 102 
103 104 100 99 103 108 113 115 113 
114 115 110 104 101 101 106 112 113 
116 115 114 115 113 113 105 89 80 
77 76 84 90 102 111 110 100 89 
86 84 79 76 78 75 67 53 5 
25 5 5 5 17 30 74 94 93 
93 91 91 90 91 97 107 111 102 
92 87 84 82 79 78 78 81 84 
92 110 115 115 112 97 81 77 79 
83 86 83 81 79 79 83 89 100 
109 111 112 111 107 104 100 98 98 
97 91 82 78 73 65 5 5 5 
67 5 5 63 68 78 81 83 88 
96 97 94 94 93 92 93 100 106 
113 116 116 116 111 104 97 94 101 
110 114 116 113 113 116 115 116 107 
89 80 78 79 84 88 100 109 107 
97 90 87 81 77 80 85 84 79 
60 25 5 5 19 38 81 93 96 
97 99 98 99 103 111 113 107 95 
86 82 79 76 76 79 81 84 90 
103 114 115 114 115 102 84 75 73 
79 84 81 78 78 82 86 97 109 
112 110 110 104 96 90 88 88 89 
89 86 80 79 77 73 5 5 5 
61 5 83 5 93 5 94 5 93 
5 95 5 94 5 79 5 55 5 
39 5 37 5 47 5 69 5 90 
5 93 5 92 5 91 5 86 5 
69 5 47 5 5 5 62 68 76 
81 84 85 87 87 86 85 85 85 
85 91 96 103 111 114 114 113 106 
95 89 94 106 113 114 111 113 117 
117 118 107 91 81 79 81 85 89 
101 109 104 95 89 84 78 79 86 
91 92 91 75 31 5 5 20 43 
83 92 96 101 110 111 111 114 114 
109 101 90 84 78 73 73 76 80 
82 87 92 106 114 113 113 115 108 
89 76 72 71 72 70 71 77 82 
90 103 112 113 109 104 92 84 80 
80 81 82 82 81 79 79 75 73 
5 67 5 5 5 47 75 95 94 
94 96 98 97 91 77 56 48 70 
86 96 97 95 93 95 89 59 5 
39 5 5 5 51 65 69 73 81 
83 82 84 82 83 82 81 82 83 
83 86 91 103 111 114 113 105 89 
84 88 103 111 110 108 115 118 117 
117 105 90 81 77 81 85 88 100 
107 101 91 87 83 79 85 89 93 
95 95 84 36 5 5 20 43 84 
94 95 103 114 119 119 117 113 106 
98 89 83 77 73 73 77 81 84 
86 89 104 111 113 113 114 112 97 
82 76 62 55 62 75 81 86 97 
109 111 111 108 94 81 78 78 79 
80 81 79 78 76 74 67 68 73 
5 5 55 85 97 93 96 97 98 
96 92 88 73 66 84 92 96 96 
94 93 94 96 73 40 5 5 5 
40 56 69 68 70 77 79 77 79 
79 80 82 80 81 82 81 82 84 
92 104 113 113 104 87 81 83 97 
106 106 107 116 119 117 116 105 89 
81 79 81 84 89 98 105 100 90 
85 82 81 87 93 95 95 95 86 
43 5 5 22 38 79 92 93 101 
111 118 121 119 113 102 95 90 86 
82 80 79 78 79 81 84 86 98 
109 115 115 113 113 103 87 82 68 
55 66 81 83 93 106 112 112 110 
103 86 77 78 78 78 76 77 74 
71 70 70 66 67 73 5 5 5 
45 5 35 5 35 5 38 5 43 
63 93 96 93 94 95 97 98 96 
93 85 83 92 93 98 97 96 96 
94 95 80 45 5 37 5 36 5 
5 43 59 68 67 68 70 72 70 
70 71 74 77 78 79 80 79 79 
80 83 96 111 114 104 85 81 81 
91 101 105 108 115 117 116 116 105 
89 80 80 82 85 88 95 103 97 
89 84 83 85 89 96 101 96 93 
85 49 5 5 25 29 74 92 94 
100 108 116 118 116 111 104 98 93 
88 86 84 81 80 81 81 82 83 
91 105 115 116 115 114 110 94 85 
76 68 75 82 89 104 110 113 114 
108 96 81 77 76 73 72 73 71 
72 73 74 77 76 73 73 5 66 
49 37 35 35 45 74 95 95 96 
96 95 97 98 97 95 89 87 95 
96 97 96 96 98 96 95 89 55 
37 38 5 5 5 39 46 57 67 
67 68 69 66 61 59 61 68 74 
77 77 79 77 73 74 78 91 109 
114 104 86 79 81 86 95 102 108 
116 119 119 118 104 88 80 80 81 
84 86 94 101 96 88 84 84 88 
92 100 104 97 93 90 61 5 19 
5 5 29 21 65 89 93 100 107 
111 112 112 110 105 100 94 91 90 
86 84 81 80 80 81 81 88 101 
113 116 115 114 111 97 85 78 72 
76 82 95 111 111 114 114 107 95 
80 77 73 70 73 77 78 78 78 
79 80 78 77 72 66 53 42 35 
37 57 87 98 97 97 95 95 97 
98 98 94 89 89 96 98 96 96 
97 98 98 97 97 70 38 37 5 
43 5 5 37 49 56 62 69 75 
77 76 69 66 67 72 76 77 77 
78 77 73 74 77 91 110 114 105 
88 77 80 83 90 99 108 117 118 
119 117 102 86 80 79 80 83 85 
91 97 96 90 87 89 92 97 104 
104 96 93 91 73 25 5 5 36 
20 59 87 91 97 102 105 106 107 
107 104 99 95 91 89 87 84 82 
79 79 81 83 87 95 108 114 113 
114 112 102 89 79 76 77 84 99 
112 112 113 113 108 100 87 83 78 
78 79 81 82 84 86 90 88 81 
77 73 66 56 49 43 57 81 96 
96 96 97 96 96 97 96 96 93 
90 90 95 99 98 97 95 95 97 
96 98 81 45 36 41 5 41 39 
50 55 60 73 79 76 78 79 78 
77 79 80 81 81 81 79 78 80 
84 97 110 113 107 90 78 79 81 
88 99 111 116 116 116 115 101 85 
80 79 79 83 85 88 91 93 94 
91 91 93 97 101 102 97 92 89 
84 37 5 5 42 22 56 86 90 
92 97 100 103 105 105 99 94 91 
90 88 86 84 82 79 78 80 83 
85 92 105 115 115 116 116 107 91 
80 78 80 86 103 113 110 109 108 
107 105 100 94 88 87 87 88 94 
98 102 102 95 85 79 76 66 54 
54 69 93 104 101 96 97 97 95 
96 96 96 96 95 93 92 95 96 
96 96 95 96 96 96 98 91 66 
48 39 39 41 48 56 69 77 81 
80 83 83 82 80 83 85 86 84 
85 85 86 88 94 103 110 112 110 
96 83 82 83 89 101 114 116 115 
115 115 100 85 81 79 77 80 84 
85 86 87 90 89 91 92 91 90 
96 98 93 88 89 50 5 5 5 