# vtk DataFile Version 4.0
vtk output
ASCII
DATASET POLYDATA
POINTS 17338 float
17.49 -101.427 -8.38 16.83 -102.073 -8.34767 16.83 -101.427 -8.38 
15.84 -102.127 -8.34497 15.84 -101.427 -8.38 14.85 -102.127 -8.34497 
14.85 -101.427 -8.38 13.86 -102.127 -8.34497 13.86 -101.427 -8.38 
12.87 -102.127 -8.34497 12.87 -101.427 -8.38 12.155 -101.427 -8.38 
21.4888 -100.458 -8.4285 20.79 -101.142 -8.39427 20.79 -100.458 -8.4285 
19.8 -101.185 -8.39213 19.8 -100.458 -8.4285 18.81 -101.225 -8.3901 
18.81 -100.458 -8.4285 17.82 -101.248 -8.38898 17.82 -100.458 -8.4285 
16.83 -100.458 -8.4285 15.84 -100.458 -8.4285 14.85 -100.458 -8.4285 
13.86 -100.458 -8.4285 12.87 -100.458 -8.4285 11.88 -101.28 -8.38735 
11.88 -100.458 -8.4285 10.89 -101.248 -8.38898 10.89 -100.458 -8.4285 
9.9 -101.225 -8.3901 9.9 -100.458 -8.4285 8.91 -101.217 -8.39054 
8.91 -100.458 -8.4285 8.13522 -100.458 -8.4285 24.4406 -99.4896 -8.477 
23.76 -100.156 -8.44366 23.76 -99.4896 -8.477 22.77 -100.238 -8.43952 
22.77 -99.4896 -8.477 21.78 -100.302 -8.43632 21.78 -99.4896 -8.477 
20.79 -99.4896 -8.477 19.8 -99.4896 -8.477 18.81 -99.4896 -8.477 
17.82 -99.4896 -8.477 16.83 -99.4896 -8.477 15.84 -99.4896 -8.477 
14.85 -99.4896 -8.477 13.86 -99.4896 -8.477 12.87 -99.4896 -8.477 
11.88 -99.4896 -8.477 10.89 -99.4896 -8.477 9.9 -99.4896 -8.477 
8.91 -99.4896 -8.477 7.92 -100.265 -8.4382 7.92 -99.4896 -8.477 
6.93 -100.216 -8.44063 6.93 -99.4896 -8.477 6.1875 -99.4896 -8.477 
-19.0457 -99.4896 -8.477 -19.8 -100.228 -8.44005 -19.8 -99.4896 -8.477 
-20.79 -100.238 -8.43952 -20.79 -99.4896 -8.477 -21.78 -100.238 -8.43952 
-21.78 -99.4896 -8.477 -22.77 -100.216 -8.44063 -22.77 -99.4896 -8.477 
-23.76 -100.173 -8.44276 -23.76 -99.4896 -8.477 -24.75 -100.135 -8.44467 
-24.75 -99.4896 -8.477 -25.41 -99.4896 -8.477 26.4 -98.5208 -8.5255 
25.74 -99.1667 -8.49317 25.74 -98.5208 -8.5255 24.75 -99.2346 -8.48976 
24.75 -98.5208 -8.5255 23.76 -98.5208 -8.5255 22.77 -98.5208 -8.5255 
21.78 -98.5208 -8.5255 20.79 -98.5208 -8.5255 19.8 -98.5208 -8.5255 
18.81 -98.5208 -8.5255 17.82 -98.5208 -8.5255 16.83 -98.5208 -8.5255 
15.84 -98.5208 -8.5255 14.85 -98.5208 -8.5255 13.86 -98.5208 -8.5255 
12.87 -98.5208 -8.5255 11.88 -98.5208 -8.5255 10.89 -98.5208 -8.5255 
9.9 -98.5208 -8.5255 8.91 -98.5208 -8.5255 7.92 -98.5208 -8.5255 
6.93 -98.5208 -8.5255 5.94 -99.3033 -8.48633 5.94 -98.5208 -8.5255 
4.95 -99.3033 -8.48633 4.95 -98.5208 -8.5255 4.15038 -98.5208 -8.5255 
-16.995 -98.5208 -8.5255 -17.82 -99.3281 -8.48508 -17.82 -98.5208 -8.5255 
-18.81 -99.3621 -8.48338 -18.81 -98.5208 -8.5255 -19.8 -98.5208 -8.5255 
-20.79 -98.5208 -8.5255 -21.78 -98.5208 -8.5255 -22.77 -98.5208 -8.5255 
-23.76 -98.5208 -8.5255 -24.75 -98.5208 -8.5255 -25.74 -99.2205 -8.49047 
-25.74 -98.5208 -8.5255 -26.455 -98.5208 -8.5255 28.4006 -97.552 -8.574 
27.72 -98.218 -8.54066 27.72 -97.552 -8.574 26.73 -98.1979 -8.54167 
26.73 -97.552 -8.574 25.74 -97.552 -8.574 24.75 -97.552 -8.574 
23.76 -97.552 -8.574 22.77 -97.552 -8.574 21.78 -97.552 -8.574 
20.79 -97.552 -8.574 19.8 -97.552 -8.574 18.81 -97.552 -8.574 
17.82 -97.552 -8.574 16.83 -97.552 -8.574 15.84 -97.552 -8.574 
14.85 -97.552 -8.574 13.86 -97.552 -8.574 12.87 -97.552 -8.574 
11.88 -97.552 -8.574 10.89 -97.552 -8.574 9.9 -97.552 -8.574 
8.91 -97.552 -8.574 7.92 -97.552 -8.574 6.93 -97.552 -8.574 
5.94 -97.552 -8.574 4.95 -97.552 -8.574 3.96 -98.3414 -8.53448 
3.96 -97.552 -8.574 3.15333 -97.552 -8.574 -16.9217 -97.552 -8.574 
-17.82 -97.552 -8.574 -18.81 -97.552 -8.574 -19.8 -97.552 -8.574 
-20.79 -97.552 -8.574 -21.78 -97.552 -8.574 -22.77 -97.552 -8.574 
-23.76 -97.552 -8.574 -24.75 -97.552 -8.574 -25.74 -97.552 -8.574 
-26.73 -98.3006 -8.53652 -26.73 -97.552 -8.574 -27.72 -98.1979 -8.54167 
-27.72 -97.552 -8.574 -28.38 -97.552 -8.574 28.4006 -96.5832 -8.6225 
27.72 -96.5832 -8.6225 26.73 -96.5832 -8.6225 25.74 -96.5832 -8.6225 
24.75 -96.5832 -8.6225 23.76 -96.5832 -8.6225 22.77 -96.5832 -8.6225 
21.78 -96.5832 -8.6225 20.79 -96.5832 -8.6225 19.8 -96.5832 -8.6225 
18.81 -96.5832 -8.6225 17.82 -96.5832 -8.6225 16.83 -96.5832 -8.6225 
15.84 -96.5832 -8.6225 14.85 -96.5832 -8.6225 13.86 -96.5832 -8.6225 
12.87 -96.5832 -8.6225 11.88 -96.5832 -8.6225 10.89 -96.5832 -8.6225 
9.9 -96.5832 -8.6225 8.91 -96.5832 -8.6225 7.92 -96.5832 -8.6225 
6.93 -96.5832 -8.6225 5.94 -96.5832 -8.6225 4.95 -96.5832 -8.6225 
4.11 -96.5832 -8.6225 3.96 -96.7626 -8.61352 -12.9634 -96.5832 -8.6225 
-13.86 -97.4606 -8.57858 -13.86 -96.5832 -8.6225 -14.85 -97.4639 -8.57841 
-14.85 -96.5832 -8.6225 -15.84 -97.4726 -8.57798 -15.84 -96.5832 -8.6225 
-16.83 -97.4786 -8.57767 -16.83 -96.5832 -8.6225 -17.82 -96.5832 -8.6225 
-18.81 -96.5832 -8.6225 -19.8 -96.5832 -8.6225 -20.79 -96.5832 -8.6225 
-21.78 -96.5832 -8.6225 -22.77 -96.5832 -8.6225 -23.76 -96.5832 -8.6225 
-24.75 -96.5832 -8.6225 -25.74 -96.5832 -8.6225 -26.73 -96.5832 -8.6225 
-27.72 -96.5832 -8.6225 -28.71 -97.2829 -8.58747 -28.71 -96.5832 -8.6225 
-29.425 -96.5832 -8.6225 30.3806 -95.6144 -8.671 29.7 -96.2804 -8.63766 
29.7 -95.6144 -8.671 28.71 -96.363 -8.63352 28.71 -95.6144 -8.671 
27.72 -95.6144 -8.671 26.73 -95.6144 -8.671 25.74 -95.6144 -8.671 
24.75 -95.6144 -8.671 23.76 -95.6144 -8.671 22.77 -95.6144 -8.671 
21.78 -95.6144 -8.671 20.79 -95.6144 -8.671 19.8 -95.6144 -8.671 
18.81 -95.6144 -8.671 17.82 -95.6144 -8.671 16.83 -95.6144 -8.671 
15.84 -95.6144 -8.671 14.85 -95.6144 -8.671 13.86 -95.6144 -8.671 
12.87 -95.6144 -8.671 11.88 -95.6144 -8.671 10.89 -95.6144 -8.671 
9.9 -95.6144 -8.671 8.91 -95.6144 -8.671 7.92 -95.6144 -8.671 
6.93 -95.6144 -8.671 5.94 -95.6144 -8.671 4.95 -95.6144 -8.671 
4.059 -95.6144 -8.671 -13.86 -95.7058 -8.66642 -13.935 -95.6144 -8.671 
-14.85 -95.6144 -8.671 -15.84 -95.6144 -8.671 -16.83 -95.6144 -8.671 
-17.82 -95.6144 -8.671 -18.81 -95.6144 -8.671 -19.8 -95.6144 -8.671 
-20.79 -95.6144 -8.671 -21.78 -95.6144 -8.671 -22.77 -95.6144 -8.671 
-23.76 -95.6144 -8.671 -24.75 -95.6144 -8.671 -25.74 -95.6144 -8.671 
-26.73 -95.6144 -8.671 -27.72 -95.6144 -8.671 -28.71 -95.6144 -8.671 
-29.7 -96.3814 -8.6326 -29.7 -95.6144 -8.671 -30.69 -96.2372 -8.63982 
-30.69 -95.6144 -8.671 -31.3264 -95.6144 -8.671 31.4195 -94.6456 -8.7195 
30.69 -95.3595 -8.68376 30.69 -94.6456 -8.7195 29.7 -94.6456 -8.7195 
28.71 -94.6456 -8.7195 27.72 -94.6456 -8.7195 26.73 -94.6456 -8.7195 
25.74 -94.6456 -8.7195 24.75 -94.6456 -8.7195 23.76 -94.6456 -8.7195 
22.77 -94.6456 -8.7195 21.78 -94.6456 -8.7195 20.79 -94.6456 -8.7195 
19.8 -94.6456 -8.7195 18.81 -94.6456 -8.7195 17.82 -94.6456 -8.7195 
16.83 -94.6456 -8.7195 15.84 -94.6456 -8.7195 14.85 -94.6456 -8.7195 
13.86 -94.6456 -8.7195 12.87 -94.6456 -8.7195 11.88 -94.6456 -8.7195 
10.89 -94.6456 -8.7195 9.9 -94.6456 -8.7195 8.91 -94.6456 -8.7195 
7.92 -94.6456 -8.7195 6.93 -94.6456 -8.7195 5.94 -94.6456 -8.7195 
4.95 -94.6456 -8.7195 3.96 -95.5323 -8.67511 3.96 -94.6456 -8.7195 
2.97 -95.5043 -8.67651 2.97 -94.6456 -8.7195 1.98 -95.476 -8.67793 
1.98 -94.6456 -8.7195 1.13143 -94.6456 -8.7195 -14.85 -94.719 -8.71583 
-14.9353 -94.6456 -8.7195 -15.84 -94.6456 -8.7195 -16.83 -94.6456 -8.7195 
-17.82 -94.6456 -8.7195 -18.81 -94.6456 -8.7195 -19.8 -94.6456 -8.7195 
-20.79 -94.6456 -8.7195 -21.78 -94.6456 -8.7195 -22.77 -94.6456 -8.7195 
-23.76 -94.6456 -8.7195 -24.75 -94.6456 -8.7195 -25.74 -94.6456 -8.7195 
-26.73 -94.6456 -8.7195 -27.72 -94.6456 -8.7195 -28.71 -94.6456 -8.7195 
-29.7 -94.6456 -8.7195 -30.69 -94.6456 -8.7195 -31.68 -95.3295 -8.68526 
-31.68 -94.6456 -8.7195 -32.3788 -94.6456 -8.7195 31.5593 -93.6768 -8.768 
30.69 -93.6768 -8.768 29.7 -93.6768 -8.768 28.71 -93.6768 -8.768 
27.72 -93.6768 -8.768 26.73 -93.6768 -8.768 25.74 -93.6768 -8.768 
24.75 -93.6768 -8.768 23.76 -93.6768 -8.768 22.77 -93.6768 -8.768 
21.78 -93.6768 -8.768 20.79 -93.6768 -8.768 19.8 -93.6768 -8.768 
18.81 -93.6768 -8.768 17.82 -93.6768 -8.768 16.83 -93.6768 -8.768 
15.84 -93.6768 -8.768 14.85 -93.6768 -8.768 13.86 -93.6768 -8.768 
12.87 -93.6768 -8.768 11.88 -93.6768 -8.768 10.89 -93.6768 -8.768 
9.9 -93.6768 -8.768 8.91 -93.6768 -8.768 7.92 -93.6768 -8.768 
6.93 -93.6768 -8.768 5.94 -93.6768 -8.768 4.95 -93.6768 -8.768 
3.96 -93.6768 -8.768 2.97 -93.6768 -8.768 1.98 -93.6768 -8.768 
1.06615 -93.6768 -8.768 -11.9611 -93.6768 -8.768 -12.87 -94.5662 -8.72348 
-12.87 -93.6768 -8.768 -13.86 -94.5675 -8.72341 -13.86 -93.6768 -8.768 
-14.85 -94.5606 -8.72375 -14.85 -93.6768 -8.768 -15.84 -93.6768 -8.768 
-16.83 -93.6768 -8.768 -17.82 -93.6768 -8.768 -18.81 -93.6768 -8.768 
-19.8 -93.6768 -8.768 -20.79 -93.6768 -8.768 -21.78 -93.6768 -8.768 
-22.77 -93.6768 -8.768 -23.76 -93.6768 -8.768 -24.75 -93.6768 -8.768 
-25.74 -93.6768 -8.768 -26.73 -93.6768 -8.768 -27.72 -93.6768 -8.768 
-28.71 -93.6768 -8.768 -29.7 -93.6768 -8.768 -30.69 -93.6768 -8.768 
-31.68 -93.6768 -8.768 -32.67 -94.4034 -8.73162 -32.67 -93.6768 -8.768 
-33.66 -94.2996 -8.73682 -33.66 -93.6768 -8.768 -34.2964 -93.6768 -8.768 
32.5729 -92.708 -8.8165 31.68 -93.5818 -8.77275 31.68 -92.708 -8.8165 
30.69 -92.708 -8.8165 29.7 -92.708 -8.8165 28.71 -92.708 -8.8165 
27.72 -92.708 -8.8165 26.73 -92.708 -8.8165 25.74 -92.708 -8.8165 
24.75 -92.708 -8.8165 23.76 -92.708 -8.8165 22.77 -92.708 -8.8165 
21.78 -92.708 -8.8165 20.79 -92.708 -8.8165 19.8 -92.708 -8.8165 
18.81 -92.708 -8.8165 17.82 -92.708 -8.8165 16.83 -92.708 -8.8165 
15.84 -92.708 -8.8165 14.85 -92.708 -8.8165 13.86 -92.708 -8.8165 
12.87 -92.708 -8.8165 11.88 -92.708 -8.8165 10.89 -92.708 -8.8165 
9.9 -92.708 -8.8165 8.91 -92.708 -8.8165 7.92 -92.708 -8.8165 
6.93 -92.708 -8.8165 5.94 -92.708 -8.8165 4.95 -92.708 -8.8165 
3.96 -92.708 -8.8165 2.97 -92.708 -8.8165 1.98 -92.708 -8.8165 
1.05972 -92.708 -8.8165 -12.87 -92.7874 -8.81252 -12.9462 -92.708 -8.8165 
-13.86 -92.708 -8.8165 -14.85 -92.708 -8.8165 -15.84 -92.708 -8.8165 
-16.83 -92.708 -8.8165 -17.82 -92.708 -8.8165 -18.81 -92.708 -8.8165 
-19.8 -92.708 -8.8165 -20.79 -92.708 -8.8165 -21.78 -92.708 -8.8165 
-22.77 -92.708 -8.8165 -23.76 -92.708 -8.8165 -24.75 -92.708 -8.8165 
[...]
POINT_DATA 17338
SCALARS scalars float
LOOKUP_TABLE default
5 5 15 5 18 5 18 5 18 
5 18 5 5 5 17 5 20 5 
24 5 27 31 36 38 36 35 5 
33 5 27 5 24 5 23 5 5 
5 16 5 22 5 31 42 48 56 
61 66 72 76 76 75 72 59 47 
35 5 25 5 20 5 5 5 21 
5 22 5 22 5 20 5 17 5 
15 5 5 5 15 5 19 34 53 
66 73 74 78 82 88 93 96 95 
95 92 85 76 64 44 29 5 26 
5 26 5 5 5 30 5 38 42 
47 48 46 37 26 5 18 5 5 
5 16 5 15 20 42 69 83 88 
89 86 82 88 96 99 101 103 100 
98 95 92 86 69 46 30 23 5 
27 5 5 54 62 70 77 79 79 
74 59 38 5 22 5 15 5 5 
16 24 41 71 88 93 96 96 88 
79 89 100 101 102 100 96 100 101 
97 90 82 66 46 33 5 5 5 
5 53 5 55 5 61 5 66 73 
80 84 87 91 91 91 85 73 52 
30 5 18 5 5 5 16 5 22 
33 46 61 83 93 99 100 98 87 
73 83 97 100 99 92 88 95 101 
97 89 83 74 63 50 5 5 5 
66 69 66 71 83 91 91 94 96 
98 95 91 84 69 44 5 24 5 
14 5 5 5 19 31 48 60 65 
75 92 98 103 103 97 85 66 76 
94 97 92 86 85 95 102 99 92 
83 76 73 71 5 59 5 44 5 
35 5 5 5 58 61 73 86 96 
96 97 100 101 100 96 94 91 80 
57 30 5 17 5 5 41 64 78 
83 85 89 98 104 107 105 99 85 
63 63 81 86 84 84 88 97 102 
98 91 82 73 68 72 76 73 65 
5 5 5 61 5 62 5 57 54 
63 77 87 95 95 96 101 103 103 
102 99 97 94 82 61 36 5 20 
5 14 5 5 5 51 74 88 93 
97 99 102 107 110 110 106 99 89 
72 59 64 68 74 84 93 99 101 
96 88 77 66 60 64 72 75 71 
5 5 5 65 61 62 73 80 80 
89 93 95 100 105 105 106 104 100 
98 86 72 54 41 30 5 20 5 
5 5 16 5 30 5 60 80 91 
96 103 106 106 106 108 109 110 109 
103 95 87 72 61 55 64 83 93 
98 98 93 85 73 61 56 61 64 
67 69 5 5 5 5 5 5 73 
72 80 87 93 97 102 104 105 106 
102 96 82 71 61 57 54 39 5 
20 5 15 5 5 33 63 86 94 
98 103 108 103 96 94 96 100 106 
109 107 102 96 89 79 63 57 78 
95 96 97 90 81 72 65 62 62 
62 63 67 5 5 62 66 71 78 
87 93 97 100 102 103 97 85 73 
65 59 56 58 52 37 20 5 5 
5 16 5 33 64 87 93 98 104 
108 105 98 88 82 83 89 97 104 
109 108 102 97 95 83 63 67 88 
94 94 88 80 74 72 67 63 62 
62 63 5 5 54 57 61 68 73 
78 87 93 98 97 88 78 67 62 
66 67 65 58 50 35 5 19 5 
15 5 5 35 60 81 92 95 99 
103 104 102 98 90 81 77 82 90 
97 102 108 108 103 97 91 73 59 
75 90 91 86 80 77 73 68 65 
61 61 61 5 5 5 54 53 56 
62 71 79 90 93 88 78 71 71 
81 89 91 86 73 59 52 38 23 
5 5 5 41 63 77 85 93 96 
98 99 100 101 97 93 89 85 82 
84 88 93 100 107 106 99 93 83 
64 61 77 85 85 82 76 71 68 
64 61 61 63 5 5 5 59 5 
57 54 55 56 63 70 74 82 80 
73 69 70 83 93 98 95 95 89 
70 60 59 47 5 27 5 5 5 
25 5 44 64 76 84 88 91 87 
84 85 88 92 94 93 93 91 85 
82 80 85 93 98 100 98 91 87 
75 59 63 75 79 80 75 69 65 
62 62 62 64 5 5 5 69 5 
72 5 71 5 71 5 68 63 58 
54 56 58 62 64 64 64 60 61 
71 80 87 93 99 100 98 93 84 
71 63 61 55 5 35 5 19 5 
5 50 64 69 77 82 82 78 76 
74 74 76 80 82 84 84 85 82 
79 73 75 84 90 94 96 89 84 
80 68 59 66 71 72 70 64 60 
59 61 62 65 5 5 5 72 70 
68 64 58 55 51 54 59 63 63 
60 56 54 66 77 81 89 97 99 
101 99 95 91 89 81 68 65 59 
42 5 23 5 15 5 5 5 60 
61 69 73 71 67 66 64 61 63 
68 72 76 78 78 79 77 69 65 
70 81 88 89 86 82 78 70 59 
59 67 71 71 68 60 54 55 5 
5 5 5 5 66 69 68 66 61 
58 58 55 50 48 53 58 62 63 
65 71 74 76 85 94 98 101 100 
99 96 96 95 87 79 68 62 51 
29 5 5 5 56 5 57 5 59 
56 51 56 61 64 63 65 64 61 
63 69 75 80 84 84 85 82 75 
69 66 68 77 82 79 75 70 65 
60 57 61 66 70 74 68 57 50 
5 5 5 67 65 64 69 68 63 
64 63 62 56 48 46 54 62 64 
66 68 65 68 79 88 95 98 99 
101 100 97 95 93 93 86 76 67 
55 5 34 5 5 5 5 5 54 
41 44 62 70 71 76 77 76 77 
81 86 89 91 91 89 87 84 80 
77 66 62 68 71 70 65 61 62 
61 5 5 5 5 5 5 5 5 
5 80 72 70 74 75 70 69 67 
66 60 53 51 62 65 66 67 64 
57 59 69 77 84 91 95 97 99 
100 97 96 95 92 87 78 72 59 
5 34 5 5 45 46 56 73 83 
83 86 89 87 88 90 93 93 95 
94 93 91 86 84 81 72 58 58 
67 5 5 5 5 5 5 5 5 
5 5 5 5 5 76 71 65 59 
58 61 66 66 66 68 64 57 54 
58 64 72 82 91 96 100 100 97 
97 97 92 89 86 78 71 59 5 
33 5 5 5 50 5 51 59 70 
76 82 88 90 92 94 95 96 95 
96 96 97 96 95 92 88 86 80 
73 60 60 5 5 5 5 5 64 
63 64 64 65 68 71 71 68 61 
54 54 60 68 75 85 92 93 95 
96 96 96 93 89 89 84 76 71 
57 5 29 5 5 5 62 66 71 
80 86 88 90 94 96 98 99 100 
98 98 98 97 96 94 90 88 87 
85 80 73 65 69 5 5 65 68 
65 66 74 80 81 80 78 72 60 
50 53 65 73 78 83 88 91 94 
96 94 94 92 89 87 81 74 69 
51 5 23 5 5 5 61 69 76 
84 87 90 93 96 98 99 100 101 
102 100 99 98 96 94 91 88 85 
82 79 75 70 5 5 5 5 5 
5 65 71 80 86 87 89 86 79 
67 51 48 55 64 72 77 84 88 
90 93 92 89 90 89 87 85 79 
71 69 44 5 5 63 74 84 88 
90 93 96 98 99 100 100 99 99 
98 96 94 94 91 88 86 82 78 
74 72 5 5 5 5 66 61 74 
83 84 88 89 90 87 78 68 62 
59 62 64 69 74 79 83 86 88 
85 85 88 86 85 82 75 74 66 
5 5 5 40 5 5 5 52 5 
54 5 57 67 80 86 88 90 94 
97 99 99 98 98 98 97 96 93 
90 88 88 84 83 80 77 72 5 
5 5 5 5 71 82 86 92 91 
91 88 84 84 84 80 77 73 74 
71 70 71 72 74 75 80 84 83 
85 86 79 71 73 5 5 5 18 
5 32 50 5 54 54 53 55 72 
84 88 90 93 94 96 96 95 93 
94 95 92 89 87 86 82 80 77 
75 73 70 5 5 5 5 82 85 
89 88 89 89 88 88 89 88 89 
85 84 81 73 66 60 55 58 70 
80 82 82 82 80 69 70 5 5 
29 51 64 62 61 58 60 77 86 
87 90 95 94 94 91 89 88 88 
87 84 82 79 77 74 72 70 73 
73 5 5 5 5 79 83 86 88 
88 88 87 89 90 90 91 92 90 
88 87 86 79 66 50 49 69 81 
84 82 76 74 68 68 5 5 5 
29 52 70 73 70 67 61 63 82 
87 87 92 96 93 91 87 79 77 
79 78 77 74 70 69 70 71 72 
5 5 5 5 5 83 85 86 86 
87 89 90 90 90 92 94 93 93 
91 91 89 83 62 55 73 82 87 
85 79 74 70 69 5 5 5 26 
54 71 80 79 75 70 61 64 84 
88 89 92 93 90 86 83 73 66 
69 70 68 67 65 66 68 69 74 
5 5 78 82 85 86 90 91 89 
88 88 89 94 95 96 97 94 90 
89 77 65 74 81 86 87 85 78 
70 70 5 5 5 14 5 23 52 
74 82 84 80 77 71 61 68 85 
89 91 95 94 91 87 85 77 67 
61 60 60 62 62 64 68 70 73 
5 5 77 80 83 86 89 88 86 
84 84 89 95 98 100 102 99 92 
89 84 72 77 84 87 88 87 81 
73 70 5 5 5 13 23 48 73 
80 85 84 80 76 70 63 74 85 
88 92 97 96 93 90 87 84 79 
69 61 58 60 66 74 75 74 77 
5 5 5 78 81 82 84 82 80 
78 83 89 93 98 104 105 101 93 
90 86 77 77 86 89 88 87 84 
76 68 5 5 5 14 25 47 67 
77 83 84 83 80 77 70 66 77 
85 86 90 95 98 93 91 88 86 
86 82 77 72 69 73 77 75 77 
82 5 5 70 75 75 77 73 70 
72 82 89 94 101 107 109 104 94 
89 85 78 77 84 89 89 88 85 
77 65 5 5 5 46 5 5 23 
49 67 65 76 83 83 83 81 77 
72 69 81 88 88 93 96 97 96 
95 92 90 87 86 84 82 79 77 
79 80 80 81 5 5 68 63 64 
69 66 63 73 88 91 96 101 107 
109 105 97 90 83 78 77 83 88 
89 89 88 81 63 5 5 56 5 
38 5 5 39 74 76 67 72 79 
83 84 82 79 73 74 85 88 92 
96 96 96 97 97 93 91 89 87 
85 85 82 80 81 80 78 80 5 
5 73 61 59 61 61 70 84 93 
94 100 105 109 110 106 99 90 83 
78 78 83 88 90 89 87 84 61 
5 47 56 54 5 5 5 17 5 
5 5 28 53 67 63 67 73 81 
86 86 85 81 68 70 85 89 93 
96 98 97 97 96 93 90 90 89 
87 87 84 82 80 78 80 83 5 
83 5 5 77 70 65 63 67 81 
92 93 95 101 105 109 110 105 97 
90 85 80 81 82 87 90 88 87 
81 62 57 63 66 5 54 31 5 
5 5 16 5 5 5 20 46 61 
63 67 73 79 85 89 87 83 76 
66 71 86 91 95 98 98 96 94 
92 89 87 87 88 88 86 83 80 
78 81 83 80 75 5 5 80 73 
68 63 68 83 92 94 96 100 104 
108 109 106 96 91 85 81 81 82 
87 91 89 87 73 66 73 76 73 
66 54 5 32 5 5 5 5 22 
43 69 77 79 82 82 85 89 90 
87 77 69 69 82 88 92 99 101 
98 94 89 88 82 80 85 89 89 
87 82 80 81 81 79 76 5 5 
5 78 76 70 65 65 77 89 91 
93 96 103 106 107 104 97 89 84 
82 81 82 84 89 90 85 73 73 
80 81 76 68 63 58 5 35 5 
5 5 15 5 5 40 68 79 83 
83 85 86 90 90 88 82 74 68 
74 87 89 96 101 99 94 91 85 
84 73 71 82 89 89 87 81 81 
80 76 73 73 5 5 70 70 73 
73 68 67 77 85 90 94 102 110 
109 104 98 89 82 81 79 81 82 
88 89 85 80 82 84 84 78 68 
61 66 64 5 5 5 5 38 62 
74 79 85 84 87 89 91 88 84 
79 74 70 79 87 91 100 104 100 
92 86 80 72 58 59 78 85 87 
86 82 82 79 73 73 79 5 5 
74 71 77 80 77 70 68 72 84 
89 97 107 109 107 101 91 85 82 
78 79 81 86 88 87 85 86 86 
84 77 68 60 62 72 5 5 5 
46 5 5 5 16 5 18 5 36 
59 69 74 78 81 82 83 84 84 
82 81 77 72 74 83 87 93 101 
103 100 91 83 77 71 56 53 71 
81 83 82 82 78 75 75 78 83 
5 5 73 70 75 79 81 81 72 
61 73 87 94 103 108 108 104 95 
90 86 81 80 82 84 86 87 85 
86 85 81 76 70 64 63 70 5 
77 74 5 48 5 5 5 15 20 
40 65 70 74 79 79 77 80 80 
79 78 78 77 74 73 77 83 88 
96 102 103 98 92 86 82 80 68 
58 62 72 79 77 77 75 71 73 
75 79 5 5 75 72 74 79 82 
82 77 63 69 85 91 100 109 109 
109 102 96 91 85 81 82 84 83 
82 83 84 83 80 78 75 75 75 
79 81 80 68 5 40 5 5 5 
14 20 42 72 80 80 81 80 78 
75 77 78 77 75 74 74 71 73 
79 83 87 94 103 108 105 98 92 
87 85 82 72 60 64 75 78 78 
76 72 71 71 76 5 5 5 81 
75 73 74 77 80 77 68 58 68 
84 91 97 104 105 107 107 103 95 
88 84 82 80 75 76 79 81 81 
79 79 79 82 83 86 88 84 76 
62 5 5 18 38 71 83 84 88 
85 82 80 77 77 76 77 76 75 
71 64 67 80 83 85 94 104 110 
110 105 100 95 89 87 81 67 59 
71 82 84 81 77 75 72 71 5 
5 5 66 66 71 77 77 74 62 
53 62 78 85 90 94 98 102 108 
109 101 93 87 82 74 71 78 81 
82 80 80 82 85 89 91 92 92 
87 80 72 5 49 5 5 5 13 
31 63 83 84 88 92 92 89 86 
84 82 78 79 80 79 76 67 64 
79 84 85 94 104 110 112 110 105 
102 94 89 84 72 60 71 81 85 
83 81 78 74 70 5 5 5 71 
63 65 72 78 81 81 74 67 69 
76 80 82 84 87 95 105 109 104 
95 86 81 74 76 83 86 88 86 
85 87 90 94 99 98 94 91 86 
77 62 5 5 5 14 18 46 77 
83 88 90 95 101 99 92 89 88 
86 86 84 83 81 74 68 77 85 
87 95 103 107 107 110 108 106 98 
88 84 72 61 71 79 83 85 81 
78 78 74 5 5 71 73 75 77 
82 87 87 85 82 83 84 83 82 
81 81 90 105 110 102 91 83 78 
79 84 87 89 92 91 91 93 97 
100 102 100 95 91 89 79 70 5 
52 5 5 15 28 61 81 82 87 
90 98 105 106 102 99 97 94 91 
89 87 84 81 74 76 84 87 94 
101 103 101 106 109 108 101 90 84 
73 66 70 77 79 82 83 80 78 
74 5 5 74 74 75 78 83 87 
89 87 85 87 88 90 89 86 87 
98 110 107 95 87 81 77 82 87 
91 94 97 99 100 100 104 108 105 
101 96 91 90 80 72 61 5 5 
5 16 15 35 64 77 83 85 87 
92 99 106 113 108 105 102 97 94 
91 85 82 78 75 81 85 88 94 
99 99 98 105 108 102 90 85 78 
71 69 73 75 79 80 77 72 72 
5 5 80 72 69 75 83 87 88 
88 90 89 90 95 97 97 101 109 
110 100 88 81 78 80 85 87 91 
97 101 102 105 108 110 108 102 97 
95 91 90 83 73 65 5 45 5 
5 16 23 41 57 70 82 82 84 
87 91 103 113 113 107 103 100 97 
92 87 83 80 76 80 84 86 90 
94 91 92 99 105 107 95 87 83 
75 68 72 74 74 72 72 73 76 
5 5 83 74 72 75 83 85 87 
84 87 89 94 100 105 108 112 112 
104 92 82 78 77 81 83 86 91 
95 99 104 108 111 111 104 94 90 
90 87 87 84 71 64 52 5 5 
5 17 16 31 49 52 62 76 80 
79 80 83 94 107 112 105 97 93 
93 90 86 83 83 77 75 83 86 
88 89 86 86 90 100 110 104 91 
85 77 70 71 73 72 67 66 70 
73 5 5 76 73 74 77 82 84 
85 82 83 87 95 104 110 113 114 
110 97 88 80 76 78 84 84 88 
88 89 92 98 107 112 106 95 89 
86 86 85 83 81 66 61 61 5 
40 5 5 5 16 15 25 46 57 
56 62 68 75 74 78 81 88 101 
111 103 95 89 86 86 85 83 81 
74 70 80 85 86 84 82 79 82 
94 111 111 96 87 81 73 71 72 
70 66 61 60 62 5 5 70 69 
75 78 82 85 84 76 79 84 91 
103 111 113 114 103 90 83 76 76 
80 82 82 83 79 82 85 95 107 
112 99 88 84 82 83 82 81 77 
62 54 63 53 5 25 5 5 17 
17 36 58 63 68 71 70 72 73 
77 80 84 96 110 108 99 90 83 
82 82 84 82 76 67 74 82 82 
81 76 73 80 86 101 109 102 91 
85 78 74 70 65 63 59 53 61 
5 73 5 5 66 66 74 81 82 
84 85 76 75 82 89 100 111 111 
111 99 86 77 72 77 83 81 79 
74 70 76 84 95 110 110 96 86 
82 80 78 77 78 75 65 54 60 
62 39 5 16 5 5 15 25 50 
64 69 77 77 80 79 78 79 82 
87 96 107 113 104 93 84 80 80 
80 79 76 67 70 78 78 76 70 
70 79 82 92 107 108 96 87 82 
80 74 66 63 63 61 63 70 5 
5 60 63 74 82 83 85 87 80 
71 78 85 94 111 113 111 101 91 
80 77 80 81 81 77 66 65 76 
86 97 113 105 89 82 78 76 75 
76 78 79 77 68 63 65 57 27 
5 5 5 12 14 37 59 67 74 
80 80 83 83 85 86 88 90 97 
106 112 109 101 90 83 78 77 77 
77 71 69 76 77 76 65 57 70 
80 88 103 112 105 93 86 84 80 
78 76 76 75 72 67 5 67 5 
5 61 65 76 82 85 88 89 84 
75 76 83 90 104 113 113 103 94 
87 83 83 83 83 76 64 69 82 
89 103 116 104 87 81 77 75 77 
81 83 84 83 82 72 63 61 48 
5 21 5 5 13 21 51 66 71 
80 82 83 85 87 91 92 94 95 
99 106 112 113 109 100 89 81 79 
77 78 76 76 77 77 77 69 51 
61 77 82 95 110 111 102 94 89 
86 83 80 80 80 77 70 69 5 
75 5 5 71 72 78 83 86 88 
89 86 79 76 81 85 97 111 114 
108 100 93 89 87 84 84 77 70 
77 86 95 113 116 102 85 79 77 
76 80 86 86 87 84 84 78 67 
61 63 39 5 5 13 32 59 70 
75 81 82 85 87 92 96 98 99 
100 101 107 112 112 112 109 98 86 
81 77 76 80 82 81 79 78 76 
59 56 71 81 91 106 111 107 103 
96 91 87 83 83 83 81 75 70 
69 5 5 5 80 73 74 78 85 
88 90 89 86 82 78 79 83 90 
102 111 113 110 103 97 89 85 85 
77 74 82 90 104 115 113 103 87 
81 78 80 84 88 90 90 86 84 
81 74 66 68 60 5 35 5 5 
16 42 63 72 78 81 83 87 91 
94 97 100 102 102 102 103 109 113 
113 112 108 99 88 82 81 85 85 
86 85 82 82 74 57 64 78 88 
102 110 105 101 96 93 89 85 83 
81 81 78 71 66 5 5 74 70 
74 81 85 87 91 90 87 85 81 
78 80 83 92 108 114 115 110 100 
89 87 80 67 74 86 94 108 115 
112 104 92 87 85 88 89 93 101 
98 90 84 82 81 79 76 71 55 
5 34 5 5 5 12 21 51 67 
75 80 82 86 87 95 99 102 103 
102 100 98 100 104 109 112 112 112 
110 101 93 90 92 92 91 90 87 
83 83 66 62 75 84 98 111 101 
92 88 86 84 83 82 80 77 74 
71 68 5 5 66 68 75 81 86 
87 90 90 88 85 83 79 78 80 
86 102 112 113 108 94 84 84 73 
65 76 87 99 112 114 112 107 100 
96 96 99 101 103 105 104 94 85 
82 85 85 83 78 70 52 5 5 
12 26 54 70 78 81 83 87 88 
93 98 102 104 100 98 94 92 94 
102 110 112 109 108 110 108 102 103 
104 101 99 94 85 83 74 65 74 
85 98 109 98 86 80 79 79 79 
78 77 74 69 67 66 5 5 5 
75 66 70 80 83 84 87 89 88 
87 86 84 81 74 76 85 94 108 
110 102 87 82 79 76 77 83 91 
106 115 112 112 112 111 108 107 108 
109 108 107 109 103 93 89 87 87 
88 85 77 63 5 36 5 5 13 
29 56 70 80 83 82 86 93 97 
103 105 103 98 94 89 87 87 96 
107 110 109 106 109 113 112 110 108 
108 107 100 88 83 79 69 73 84 
99 112 97 85 81 80 78 78 76 
77 75 69 63 62 5 5 63 69 
76 80 82 80 83 85 83 83 85 
84 78 71 72 81 90 106 109 98 
84 78 73 80 84 90 99 112 114 
112 113 113 111 108 110 111 110 110 
113 112 113 109 104 98 93 89 88 
82 72 44 5 5 14 30 54 69 
79 82 82 85 93 100 105 108 105 
98 91 87 85 83 87 99 108 111 
109 110 110 111 109 108 108 111 105 
90 84 79 71 74 86 100 110 102 
93 87 85 83 81 80 80 79 76 
72 69 5 67 5 5 56 69 79 
80 80 78 79 83 81 81 81 80 
77 76 77 81 91 108 110 97 84 
74 71 85 86 93 107 115 115 114 
114 109 102 102 103 106 107 112 115 
115 117 118 114 110 104 94 90 85 
80 51 5 5 12 30 52 65 76 
83 83 86 91 100 106 108 105 99 
92 85 81 80 81 88 100 109 112 
112 111 110 104 104 106 110 108 97 
87 79 74 78 88 105 109 107 104 
101 98 95 91 87 83 82 81 79 
74 71 5 5 5 75 60 69 76 
76 74 77 76 77 80 81 79 80 
81 81 83 85 96 111 112 97 83 
73 74 84 88 99 110 115 115 114 
113 103 93 92 98 103 107 111 115 
115 112 111 108 107 105 98 90 85 
84 62 5 5 12 30 45 57 69 
80 84 86 87 96 106 111 108 99 
91 85 79 77 78 81 89 101 112 
112 111 107 100 97 97 102 108 103 
91 84 82 86 99 110 108 108 105 
105 107 106 103 98 91 86 84 81 
77 74 5 71 5 5 71 64 70 
70 72 75 78 79 79 83 85 85 
85 90 92 95 97 104 112 113 101 
85 76 78 82 88 101 110 114 113 
115 110 96 88 86 91 98 105 111 
114 109 103 99 97 96 94 91 90 
87 84 65 5 5 12 30 46 55 
63 72 79 83 86 94 105 111 110 
102 94 86 81 77 78 79 80 88 
103 113 114 109 100 93 89 95 104 
108 101 94 94 101 110 109 105 102 
98 100 100 99 100 99 98 92 86 
84 79 75 71 5 76 5 5 67 
63 65 71 76 80 81 82 83 88 
93 98 102 104 104 108 110 112 112 
113 107 92 82 82 85 90 101 112 
115 111 115 109 91 83 83 89 97 
105 112 113 105 97 92 88 88 88 
85 87 88 84 67 5 5 14 30 
51 58 63 68 73 80 85 89 98 
107 111 107 98 90 85 82 79 77 
78 82 90 108 114 111 101 92 85 
86 96 108 110 108 108 108 103 98 
94 92 92 92 93 92 94 96 100 
98 91 87 82 78 75 70 5 60 
5 5 5 70 65 63 66 77 83 
85 86 89 96 103 108 111 113 113 
114 111 109 112 113 112 112 107 97 
91 91 96 105 114 116 115 117 105 
86 81 83 87 96 106 115 112 101 
93 88 85 86 84 85 87 86 81 
62 5 5 18 36 61 71 74 75 
74 75 80 86 92 102 111 111 103 
93 87 84 81 77 76 78 82 98 
110 111 106 93 83 81 87 103 110 
109 107 99 90 89 89 91 93 92 
93 93 95 97 103 104 100 94 86 
80 77 66 57 5 5 65 63 65 
73 83 88 89 97 104 109 110 113 
116 117 117 116 114 111 112 114 113 
113 114 109 103 103 104 111 116 116 
115 117 104 86 79 81 87 96 105 
115 109 98 90 86 82 82 81 80 
83 81 74 55 5 5 5 12 21 
46 71 83 85 84 79 76 77 83 
90 99 109 112 108 99 90 86 84 
79 74 73 79 92 108 113 108 95 
82 79 81 96 108 106 98 88 82 
85 88 94 98 99 100 100 101 103 
105 108 107 100 91 82 78 70 62 
5 5 66 66 73 81 84 89 97 
105 108 107 105 107 110 112 115 117 
116 114 115 115 113 114 116 114 110 
112 114 117 117 116 115 116 104 88 
81 81 85 95 105 110 105 95 87 
84 82 79 78 77 80 75 64 50 
5 24 5 5 12 24 58 83 90 
88 87 83 81 79 81 88 98 110 
111 106 97 90 84 82 79 74 75 
79 92 109 115 112 98 83 81 82 
90 102 102 90 81 81 83 89 99 
107 107 106 106 104 104 104 106 106 
103 96 88 79 74 67 5 5 64 
69 78 84 86 91 96 98 98 97 
95 95 99 105 110 114 116 116 115 
114 113 114 116 114 112 113 116 117 
116 115 113 115 105 88 82 82 86 
95 105 110 103 93 87 83 79 77 
79 80 83 79 70 57 27 5 5 
17 30 70 91 93 92 90 87 86 
84 85 94 106 114 108 101 92 85 
82 80 78 76 80 84 99 111 116 
115 102 85 79 80 86 93 92 85 
79 79 81 92 106 112 112 112 109 
104 100 99 96 97 99 96 87 81 
77 71 5 64 5 5 63 66 81 
85 84 89 92 92 89 87 87 85 
87 94 98 105 111 115 115 114 113 
113 113 113 113 114 116 117 116 115 
113 114 105 87 80 81 85 94 106 
109 103 93 85 82 76 75 79 82 
87 89 83 65 32 5 5 18 39 
79 92 95 96 96 93 91 90 95 
104 112 112 102 93 87 82 81 79 
78 79 83 91 107 115 118 117 106 
86 78 77 81 85 85 82 80 80 
84 97 110 115 114 110 102 95 88 
88 87 87 90 89 84 81 78 76 
70 5 5 5 57 5 63 66 64 
77 83 82 85 87 87 86 85 84 
82 81 86 88 95 104 112 114 113 
111 110 110 113 115 116 116 116 114 
115 114 116 104 88 80 81 85 93 
104 111 105 93 85 81 76 76 83 
89 92 93 90 73 36 5 5 20 
45 84 92 95 101 107 107 104 106 
110 115 114 107 94 88 83 78 77 
75 77 82 85 96 110 115 115 116 
109 90 77 73 77 82 83 80 79 
82 89 106 113 114 112 105 92 85 
80 81 82 83 84 82 80 78 77 
76 71 5 5 5 50 5 70 5 
86 5 89 5 88 5 92 5 91 
5 77 5 54 5 38 5 35 5 
44 5 68 5 89 5 90 5 89 
5 87 5 79 5 60 5 38 5 
5 46 61 70 67 73 80 80 82 
83 84 83 82 79 79 81 83 84 
87 95 108 113 113 110 107 107 110 
114 115 113 114 115 115 116 117 102 
87 80 80 85 95 102 112 105 92 
84 81 76 79 86 92 94 95 94 
84 43 5 5 18 48 85 91 94 
103 114 119 119 120 118 116 112 103 
93 86 79 74 72 72 79 83 86 
98 109 114 114 116 113 97 80 74 
69 71 73 76 79 84 97 112 113 
111 110 98 81 78 79 80 81 79 
79 79 77 77 73 69 73 5 5 
5 42 61 86 94 93 93 95 95 
87 67 47 43 62 81 93 95 94 
95 96 84 49 5 44 5 5 48 
65 77 75 75 78 76 76 78 78 
80 81 78 77 81 82 81 82 88 
103 114 114 112 105 102 106 112 113 
113 114 117 117 117 116 102 86 78 
79 84 93 101 110 105 91 83 82 
80 83 88 93 97 96 93 88 49 
5 5 20 48 84 90 94 104 115 
120 120 121 121 116 110 101 92 86 
81 77 74 75 80 82 84 95 106 
113 113 116 116 103 87 78 60 54 
65 77 83 91 106 113 112 111 108 
93 78 77 77 79 81 78 75 76 
74 77 70 66 72 5 5 5 54 
5 5 50 74 96 93 93 95 98 
96 91 82 62 54 79 90 95 96 
96 96 96 95 62 37 5 5 5 
37 49 67 78 78 78 78 74 73 
73 73 74 74 74 75 79 79 78 
78 82 97 112 114 112 103 97 101 
108 112 113 115 119 119 117 115 99 
84 80 81 84 91 100 111 106 93 
85 83 83 85 89 96 101 98 93 
88 53 5 5 20 43 81 90 93 
103 112 115 114 115 115 113 108 102 
93 88 86 82 79 77 78 81 81 
87 100 112 115 116 116 108 91 83 
68 59 70 81 86 99 110 112 112 
109 105 90 78 78 76 77 79 76 
73 75 75 78 74 69 68 5 72 
59 5 41 5 39 5 37 5 37 
56 88 98 93 95 94 97 97 94 
89 78 73 88 91 95 96 96 96 
94 95 74 41 5 37 5 38 5 
5 5 34 37 49 66 75 78 80 
77 76 74 69 67 66 68 73 76 
79 77 74 77 80 95 113 115 112 
102 94 97 105 110 114 117 118 117 
118 114 98 84 78 80 84 89 98 
110 109 96 86 83 84 88 95 103 
105 96 92 87 59 5 21 5 5 
21 34 74 91 94 101 106 104 103 
105 108 111 111 106 98 92 88 85 
82 80 79 79 80 84 93 106 114 
115 116 113 99 86 76 70 76 82 
91 105 112 114 111 106 101 88 79 
77 72 74 77 78 78 78 79 79 
78 76 72 72 61 47 40 34 41 
68 95 97 95 98 97 98 97 96 
93 85 83 91 93 96 95 96 97 
96 99 88 49 36 43 5 44 35 
39 52 66 75 79 81 80 81 76 
69 66 67 72 77 78 79 76 73 
75 80 94 111 116 113 101 91 94 
102 110 116 119 118 116 119 113 96 
84 80 79 82 88 96 107 109 98 