# vtk DataFile Version 4.0
vtk output
ASCII
DATASET POLYDATA
POINTS 20222 float
20.4806 -103.956 -0.6835 19.8 -104.622 -0.650156 19.8 -103.956 -0.6835 
18.81 -104.601 -0.651167 18.81 -103.956 -0.6835 17.82 -104.669 -0.647763 
17.82 -103.956 -0.6835 16.83 -104.704 -0.646023 16.83 -103.956 -0.6835 
15.84 -104.745 -0.643981 15.84 -103.956 -0.6835 14.85 -104.778 -0.642348 
14.85 -103.956 -0.6835 13.86 -104.797 -0.641382 13.86 -103.956 -0.6835 
12.87 -104.814 -0.640511 12.87 -103.956 -0.6835 11.88 -104.821 -0.64016 
11.88 -103.956 -0.6835 10.89 -104.819 -0.640272 10.89 -103.956 -0.6835 
9.9 -104.809 -0.640774 9.9 -103.956 -0.6835 8.91 -104.803 -0.641062 
8.91 -103.956 -0.6835 7.92 -104.782 -0.642132 7.92 -103.956 -0.6835 
6.93 -104.757 -0.643362 6.93 -103.956 -0.6835 5.94 -104.723 -0.645104 
5.94 -103.956 -0.6835 4.95 -104.714 -0.645543 4.95 -103.956 -0.6835 
4.17522 -103.956 -0.6835 22.44 -102.987 -0.732 21.78 -103.633 -0.699667 
21.78 -102.987 -0.732 20.79 -103.671 -0.697765 20.79 -102.987 -0.732 
19.8 -102.987 -0.732 18.81 -102.987 -0.732 17.82 -102.987 -0.732 
16.83 -102.987 -0.732 15.84 -102.987 -0.732 14.85 -102.987 -0.732 
13.86 -102.987 -0.732 12.87 -102.987 -0.732 11.88 -102.987 -0.732 
10.89 -102.987 -0.732 9.9 -102.987 -0.732 8.91 -102.987 -0.732 
7.92 -102.987 -0.732 6.93 -102.987 -0.732 5.94 -102.987 -0.732 
4.95 -102.987 -0.732 3.96 -103.804 -0.691078 3.96 -102.987 -0.732 
2.97 -103.794 -0.691583 2.97 -102.987 -0.732 2.145 -102.987 -0.732 
24.5143 -102.018 -0.7805 23.76 -102.756 -0.743548 23.76 -102.018 -0.7805 
22.77 -102.702 -0.746265 22.77 -102.018 -0.7805 21.78 -102.018 -0.7805 
20.79 -102.018 -0.7805 19.8 -102.018 -0.7805 18.81 -102.018 -0.7805 
17.82 -102.018 -0.7805 16.83 -102.018 -0.7805 15.84 -102.018 -0.7805 
14.85 -102.018 -0.7805 13.86 -102.018 -0.7805 12.87 -102.018 -0.7805 
11.88 -102.018 -0.7805 10.89 -102.018 -0.7805 9.9 -102.018 -0.7805 
8.91 -102.018 -0.7805 7.92 -102.018 -0.7805 6.93 -102.018 -0.7805 
5.94 -102.018 -0.7805 4.95 -102.018 -0.7805 3.96 -102.018 -0.7805 
2.97 -102.018 -0.7805 1.98 -102.863 -0.738218 1.98 -102.018 -0.7805 
1.11692 -102.018 -0.7805 -15.015 -102.018 -0.7805 -15.84 -102.825 -0.740083 
-15.84 -102.018 -0.7805 -16.83 -102.856 -0.738554 -16.83 -102.018 -0.7805 
-17.82 -102.869 -0.737915 -17.82 -102.018 -0.7805 -18.81 -102.869 -0.737915 
-18.81 -102.018 -0.7805 -19.8 -102.866 -0.738063 -19.8 -102.018 -0.7805 
-20.79 -102.844 -0.739132 -20.79 -102.018 -0.7805 -21.78 -102.785 -0.742104 
-21.78 -102.018 -0.7805 -22.5637 -102.018 -0.7805 25.41 -101.049 -0.829 
24.75 -101.695 -0.796667 24.75 -101.049 -0.829 23.76 -101.049 -0.829 
22.77 -101.049 -0.829 21.78 -101.049 -0.829 20.79 -101.049 -0.829 
19.8 -101.049 -0.829 18.81 -101.049 -0.829 17.82 -101.049 -0.829 
16.83 -101.049 -0.829 15.84 -101.049 -0.829 14.85 -101.049 -0.829 
13.86 -101.049 -0.829 12.87 -101.049 -0.829 11.88 -101.049 -0.829 
10.89 -101.049 -0.829 9.9 -101.049 -0.829 8.91 -101.049 -0.829 
7.92 -101.049 -0.829 6.93 -101.049 -0.829 5.94 -101.049 -0.829 
4.95 -101.049 -0.829 3.96 -101.049 -0.829 2.97 -101.049 -0.829 
1.98 -101.049 -0.829 0.99 -101.894 -0.786718 0.99 -101.049 -0.829 
0.126923 -101.049 -0.829 -12.078 -101.049 -0.829 -12.87 -101.824 -0.7902 
-12.87 -101.049 -0.829 -13.86 -101.871 -0.787848 -13.86 -101.049 -0.829 
-14.85 -101.923 -0.785255 -14.85 -101.049 -0.829 -15.84 -101.049 -0.829 
-16.83 -101.049 -0.829 -17.82 -101.049 -0.829 -18.81 -101.049 -0.829 
-19.8 -101.049 -0.829 -20.79 -101.049 -0.829 -21.78 -101.049 -0.829 
-22.77 -101.915 -0.78566 -22.77 -101.049 -0.829 -23.76 -101.845 -0.789161 
-23.76 -101.049 -0.829 -24.75 -101.733 -0.794765 -24.75 -101.049 -0.829 
-25.4488 -101.049 -0.829 27.445 -100.08 -0.8775 26.73 -100.78 -0.842472 
26.73 -100.08 -0.8775 25.74 -100.726 -0.845167 25.74 -100.08 -0.8775 
24.75 -100.08 -0.8775 23.76 -100.08 -0.8775 22.77 -100.08 -0.8775 
21.78 -100.08 -0.8775 20.79 -100.08 -0.8775 19.8 -100.08 -0.8775 
18.81 -100.08 -0.8775 17.82 -100.08 -0.8775 16.83 -100.08 -0.8775 
15.84 -100.08 -0.8775 14.85 -100.08 -0.8775 13.86 -100.08 -0.8775 
12.87 -100.08 -0.8775 11.88 -100.08 -0.8775 10.89 -100.08 -0.8775 
9.9 -100.08 -0.8775 8.91 -100.08 -0.8775 7.92 -100.08 -0.8775 
6.93 -100.08 -0.8775 5.94 -100.08 -0.8775 4.95 -100.08 -0.8775 
3.96 -100.08 -0.8775 2.97 -100.08 -0.8775 1.98 -100.08 -0.8775 
0.99 -100.08 -0.8775 0.0951923 -100.08 -0.8775 -12.0007 -100.08 -0.8775 
-12.87 -100.08 -0.8775 -13.86 -100.08 -0.8775 -14.85 -100.08 -0.8775 
-15.84 -100.08 -0.8775 -16.83 -100.08 -0.8775 -17.82 -100.08 -0.8775 
-18.81 -100.08 -0.8775 -19.8 -100.08 -0.8775 -20.79 -100.08 -0.8775 
-21.78 -100.08 -0.8775 -22.77 -100.08 -0.8775 -23.76 -100.08 -0.8775 
-24.75 -100.08 -0.8775 -25.74 -100.863 -0.838327 -25.74 -100.08 -0.8775 
-26.73 -100.794 -0.841763 -26.73 -100.08 -0.8775 -27.4595 -100.08 -0.8775 
28.4188 -99.1116 -0.926 27.72 -99.7955 -0.891765 27.72 -99.1116 -0.926 
26.73 -99.1116 -0.926 25.74 -99.1116 -0.926 24.75 -99.1116 -0.926 
23.76 -99.1116 -0.926 22.77 -99.1116 -0.926 21.78 -99.1116 -0.926 
20.79 -99.1116 -0.926 19.8 -99.1116 -0.926 18.81 -99.1116 -0.926 
17.82 -99.1116 -0.926 16.83 -99.1116 -0.926 15.84 -99.1116 -0.926 
14.85 -99.1116 -0.926 13.86 -99.1116 -0.926 12.87 -99.1116 -0.926 
11.88 -99.1116 -0.926 10.89 -99.1116 -0.926 9.9 -99.1116 -0.926 
8.91 -99.1116 -0.926 7.92 -99.1116 -0.926 6.93 -99.1116 -0.926 
5.94 -99.1116 -0.926 4.95 -99.1116 -0.926 3.96 -99.1116 -0.926 
2.97 -99.1116 -0.926 1.98 -99.1116 -0.926 0.99 -99.1116 -0.926 
0.0738806 -99.1116 -0.926 -2.13 -99.1116 -0.926 -2.97 -99.9336 -0.884848 
-2.97 -99.1116 -0.926 -3.81 -99.1116 -0.926 -10.991 -99.1116 -0.926 
-11.88 -99.9815 -0.882449 -11.88 -99.1116 -0.926 -12.87 -99.1116 -0.926 
-13.86 -99.1116 -0.926 -14.85 -99.1116 -0.926 -15.84 -99.1116 -0.926 
-16.83 -99.1116 -0.926 -17.82 -99.1116 -0.926 -18.81 -99.1116 -0.926 
-19.8 -99.1116 -0.926 -20.79 -99.1116 -0.926 -21.78 -99.1116 -0.926 
-22.77 -99.1116 -0.926 -23.76 -99.1116 -0.926 -24.75 -99.1116 -0.926 
-25.74 -99.1116 -0.926 -26.73 -99.1116 -0.926 -27.72 -99.9336 -0.884848 
-27.72 -99.1116 -0.926 -28.71 -99.8698 -0.888043 -28.71 -99.1116 -0.926 
-29.7 -99.7955 -0.891765 -29.7 -99.1116 -0.926 -30.69 -99.7575 -0.893667 
-30.69 -99.1116 -0.926 -31.35 -99.1116 -0.926 29.4088 -98.1428 -0.9745 
28.71 -98.8267 -0.940265 28.71 -98.1428 -0.9745 27.72 -98.1428 -0.9745 
26.73 -98.1428 -0.9745 25.74 -98.1428 -0.9745 24.75 -98.1428 -0.9745 
23.76 -98.1428 -0.9745 22.77 -98.1428 -0.9745 21.78 -98.1428 -0.9745 
20.79 -98.1428 -0.9745 19.8 -98.1428 -0.9745 18.81 -98.1428 -0.9745 
17.82 -98.1428 -0.9745 16.83 -98.1428 -0.9745 15.84 -98.1428 -0.9745 
14.85 -98.1428 -0.9745 13.86 -98.1428 -0.9745 12.87 -98.1428 -0.9745 
11.88 -98.1428 -0.9745 10.89 -98.1428 -0.9745 9.9 -98.1428 -0.9745 
8.91 -98.1428 -0.9745 7.92 -98.1428 -0.9745 6.93 -98.1428 -0.9745 
5.94 -98.1428 -0.9745 4.95 -98.1428 -0.9745 3.96 -98.1428 -0.9745 
2.97 -98.1428 -0.9745 1.98 -98.1428 -0.9745 0.99 -98.1428 -0.9745 
0 -99.0335 -0.929911 0 -98.1428 -0.9745 -0.910161 -98.1428 -0.9745 
-1.07684 -98.1428 -0.9745 -1.98 -99.0266 -0.930254 -1.98 -98.1428 -0.9745 
-2.97 -98.1428 -0.9745 -3.87316 -98.1428 -0.9745 -10.9784 -98.1428 -0.9745 
-11.88 -98.1428 -0.9745 -12.87 -98.1428 -0.9745 -13.86 -98.1428 -0.9745 
-14.85 -98.1428 -0.9745 -15.84 -98.1428 -0.9745 -16.83 -98.1428 -0.9745 
-17.82 -98.1428 -0.9745 -18.81 -98.1428 -0.9745 -19.8 -98.1428 -0.9745 
-20.79 -98.1428 -0.9745 -21.78 -98.1428 -0.9745 -22.77 -98.1428 -0.9745 
-23.76 -98.1428 -0.9745 -24.75 -98.1428 -0.9745 -25.74 -98.1428 -0.9745 
-26.73 -98.1428 -0.9745 -27.72 -98.1428 -0.9745 -28.71 -98.1428 -0.9745 
-29.7 -98.1428 -0.9745 -30.69 -98.1428 -0.9745 -31.68 -98.8089 -0.941156 
-31.68 -98.1428 -0.9745 -32.67 -98.7887 -0.942167 -32.67 -98.1428 -0.9745 
-33.33 -98.1428 -0.9745 33.3995 -97.174 -1.023 32.67 -97.8879 -0.987263 
32.67 -97.174 -1.023 31.9405 -97.174 -1.023 31.3264 -97.174 -1.023 
30.69 -97.7968 -0.991821 30.69 -97.174 -1.023 29.7 -97.8737 -0.987972 
29.7 -97.174 -1.023 28.71 -97.174 -1.023 27.72 -97.174 -1.023 
26.73 -97.174 -1.023 25.74 -97.174 -1.023 24.75 -97.174 -1.023 
23.76 -97.174 -1.023 22.77 -97.174 -1.023 21.78 -97.174 -1.023 
20.79 -97.174 -1.023 19.8 -97.174 -1.023 18.81 -97.174 -1.023 
17.82 -97.174 -1.023 16.83 -97.174 -1.023 15.84 -97.174 -1.023 
14.85 -97.174 -1.023 13.86 -97.174 -1.023 12.87 -97.174 -1.023 
11.88 -97.174 -1.023 10.89 -97.174 -1.023 9.9 -97.174 -1.023 
8.91 -97.174 -1.023 7.92 -97.174 -1.023 6.93 -97.174 -1.023 
5.94 -97.174 -1.023 4.95 -97.174 -1.023 3.96 -97.174 -1.023 
2.97 -97.174 -1.023 1.98 -97.174 -1.023 0.99 -97.174 -1.023 
0 -97.174 -1.023 -0.99 -98.0716 -0.978066 -0.99 -97.174 -1.023 
-1.98 -97.174 -1.023 -2.97 -97.174 -1.023 -3.90036 -97.174 -1.023 
-9.9825 -97.174 -1.023 -10.89 -98.0621 -0.978542 -10.89 -97.174 -1.023 
-11.88 -97.174 -1.023 -12.87 -97.174 -1.023 -13.86 -97.174 -1.023 
-14.85 -97.174 -1.023 -15.84 -97.174 -1.023 -16.83 -97.174 -1.023 
-17.82 -97.174 -1.023 -18.81 -97.174 -1.023 -19.8 -97.174 -1.023 
-20.79 -97.174 -1.023 -21.78 -97.174 -1.023 -22.77 -97.174 -1.023 
-23.76 -97.174 -1.023 -24.75 -97.174 -1.023 -25.74 -97.174 -1.023 
-26.73 -97.174 -1.023 -27.72 -97.174 -1.023 -28.71 -97.174 -1.023 
-29.7 -97.174 -1.023 -30.69 -97.174 -1.023 -31.68 -97.174 -1.023 
-32.67 -97.174 -1.023 -33.66 -97.8199 -0.990667 -33.66 -97.174 -1.023 
-34.32 -97.174 -1.023 33.3688 -96.2052 -1.0715 32.67 -96.2052 -1.0715 
31.68 -96.8511 -1.03917 31.68 -96.2052 -1.0715 30.69 -96.2052 -1.0715 
29.7 -96.2052 -1.0715 28.71 -96.2052 -1.0715 27.72 -96.2052 -1.0715 
26.73 -96.2052 -1.0715 25.74 -96.2052 -1.0715 24.75 -96.2052 -1.0715 
23.76 -96.2052 -1.0715 22.77 -96.2052 -1.0715 21.78 -96.2052 -1.0715 
20.79 -96.2052 -1.0715 19.8 -96.2052 -1.0715 18.81 -96.2052 -1.0715 
17.82 -96.2052 -1.0715 16.83 -96.2052 -1.0715 15.84 -96.2052 -1.0715 
14.85 -96.2052 -1.0715 13.86 -96.2052 -1.0715 12.87 -96.2052 -1.0715 
11.88 -96.2052 -1.0715 10.89 -96.2052 -1.0715 9.9 -96.2052 -1.0715 
[...]
POINT_DATA 20222
SCALARS scalars float
LOOKUP_TABLE default
5 5 16 5 15 5 19 5 22 
5 27 5 33 5 38 5 44 5 
47 5 46 5 42 5 40 5 34 
5 29 5 24 5 23 5 5 5 
15 5 17 26 37 48 60 70 77 
80 84 85 85 82 78 76 66 55 
44 5 32 5 30 5 5 5 21 
5 17 17 31 56 73 83 92 95 
96 97 99 100 100 103 99 101 98 
93 82 63 47 5 39 5 5 5 
30 5 37 5 41 5 41 5 40 
5 34 5 24 5 5 5 15 17 
22 37 59 76 83 91 98 99 100 
101 100 104 104 108 106 103 105 106 
101 89 75 55 5 39 5 5 5 
25 5 33 5 51 70 80 85 86 
83 79 68 5 47 5 28 5 17 
5 5 5 18 5 15 17 26 40 
52 66 77 80 83 86 87 87 88 
89 93 95 98 104 106 105 105 103 
100 93 74 52 5 5 41 64 86 
96 98 99 101 101 102 100 90 68 
41 5 26 5 19 5 5 5 17 
17 24 35 47 49 52 66 82 84 
79 77 79 79 80 80 82 85 88 
96 102 101 100 103 102 100 88 67 
5 5 5 33 5 5 5 49 56 
79 97 102 102 107 108 106 106 104 
98 87 72 57 46 5 33 5 23 
5 17 5 15 5 5 5 17 22 
36 51 59 60 60 58 62 79 89 
89 89 89 89 90 90 90 89 89 
95 95 94 93 97 99 96 90 77 
5 62 5 5 5 57 57 5 5 
56 71 91 98 101 106 111 108 104 
104 101 95 90 85 80 77 70 60 
44 26 5 16 5 15 5 5 5 
19 5 5 5 14 5 18 27 45 
59 67 74 78 80 73 61 68 82 
90 95 96 96 97 99 100 98 97 
100 98 92 90 89 92 95 95 85 
73 5 68 75 83 5 5 5 60 
72 92 97 97 100 105 106 100 93 
90 88 88 91 94 96 94 90 92 
86 67 41 21 5 15 5 5 17 
5 15 20 34 49 58 65 76 80 
86 92 92 84 75 74 83 91 93 
95 98 101 102 102 103 104 102 95 
91 89 86 90 93 84 73 63 73 
79 5 5 5 62 65 88 101 104 
104 104 107 109 101 91 88 87 88 
93 99 103 103 102 100 96 93 75 
46 28 5 19 5 16 5 5 5 
16 5 16 21 34 50 62 64 64 
73 82 83 87 95 98 96 87 77 
77 83 87 91 96 100 105 107 106 
107 106 101 98 91 80 78 81 79 
71 64 69 72 5 5 61 70 96 
100 105 106 105 106 111 110 102 96 
91 89 95 103 106 109 110 104 99 
96 86 71 59 44 29 5 20 5 
5 5 26 5 18 5 19 25 37 
51 69 79 77 75 79 81 84 85 
85 91 100 102 97 84 77 81 83 
87 94 102 109 110 110 109 106 101 
101 91 69 64 67 67 62 59 64 
69 5 5 61 74 97 102 101 97 
95 100 107 112 112 108 102 96 96 
102 106 111 112 108 101 96 92 87 
84 82 68 46 5 26 5 5 19 
26 43 62 74 81 89 92 88 81 
85 87 88 89 86 88 96 103 104 
94 89 88 88 88 94 103 108 109 
109 108 104 96 91 78 65 66 68 
68 58 50 55 68 5 5 5 63 
66 75 90 98 94 85 81 90 103 
106 110 114 111 108 102 104 108 111 
114 111 107 102 99 99 98 97 93 
84 64 5 40 5 20 5 5 5 
13 5 16 33 57 78 87 91 95 
96 96 89 79 81 91 96 97 90 
88 91 100 108 105 101 98 95 95 
102 107 106 107 109 107 99 88 76 
63 66 80 88 90 77 60 52 60 
5 5 5 61 66 70 67 81 94 
96 88 74 75 91 96 101 106 111 
113 110 109 108 110 113 112 114 112 
110 108 108 107 102 96 90 78 50 
5 24 5 5 5 16 19 35 60 
78 87 93 96 99 99 97 90 80 
81 91 99 103 103 100 98 104 111 
112 109 105 103 105 108 107 106 106 
109 107 96 84 69 67 83 91 94 
97 93 77 55 58 5 5 5 59 
61 69 73 71 88 100 101 95 77 
70 85 91 92 98 107 113 113 112 
110 111 114 115 114 112 110 111 112 
111 111 104 97 94 83 57 5 28 
5 5 5 13 15 32 59 76 84 
90 94 99 100 97 94 86 74 78 
91 98 106 111 109 109 112 113 111 
111 110 110 109 105 100 101 104 106 
105 100 88 79 86 96 96 97 96 
93 86 62 53 5 5 5 65 66 
68 71 81 90 99 102 102 97 85 
79 90 95 93 99 107 113 113 115 
114 110 108 107 106 105 102 102 103 
103 104 105 103 100 94 88 64 5 
31 5 5 5 15 15 30 57 71 
72 79 86 88 92 94 93 91 85 
73 75 88 97 107 114 114 112 112 
110 109 112 112 110 109 102 92 91 
97 102 105 104 99 96 100 99 97 
98 94 93 89 68 54 5 64 5 
69 70 69 68 80 94 99 101 105 
101 92 87 90 100 102 104 106 111 
114 113 113 109 104 96 90 91 94 
92 87 85 88 90 94 98 100 97 
94 90 65 5 5 5 27 57 73 
72 68 65 71 78 83 85 84 83 
79 74 79 89 95 104 111 114 113 
111 107 107 109 111 110 108 100 90 
84 87 96 103 105 103 102 98 94 
89 90 91 93 91 71 57 61 63 
65 62 72 93 100 100 104 107 96 
89 89 96 103 108 110 111 111 112 
112 112 104 94 87 82 85 87 87 
81 76 81 86 88 88 91 95 97 
96 89 5 56 5 5 5 12 5 
21 51 75 79 77 70 58 61 72 
81 84 83 81 76 75 81 90 97 
105 111 113 111 106 101 99 102 107 
110 111 106 95 81 79 86 95 101 
103 103 95 87 78 75 82 87 83 
67 56 62 61 63 74 89 100 101 
105 108 104 91 84 90 101 105 108 
108 105 103 105 107 104 95 87 86 
88 90 92 90 84 83 88 93 92 
89 89 97 103 98 95 76 5 36 
5 5 16 39 68 79 82 79 72 
63 66 74 84 87 87 83 81 80 
83 90 99 107 112 112 110 102 94 
87 90 98 107 110 109 100 87 78 
76 83 94 101 101 94 85 73 66 
69 68 60 54 58 61 60 73 90 
98 100 105 108 108 99 88 82 92 
102 106 110 106 98 92 91 95 93 
82 79 86 94 97 100 98 95 94 
99 102 101 100 101 106 107 101 96 
83 49 5 5 5 14 27 56 74 
80 81 76 68 64 73 85 93 96 
95 90 92 91 91 97 103 109 112 
112 110 102 92 78 74 85 98 106 
111 105 95 84 71 72 85 97 100 
97 90 83 79 80 72 51 50 60 
58 66 85 96 99 104 107 104 101 
90 81 78 91 102 107 108 101 91 
80 76 78 72 62 72 89 96 104 
113 109 108 108 110 112 111 110 110 
108 104 99 92 80 56 5 28 5 
5 21 41 62 75 81 81 74 66 
60 73 88 95 101 103 101 104 102 
101 106 110 112 113 114 111 99 90 
69 53 69 85 96 109 108 99 90 
75 72 83 95 101 101 97 93 91 
91 87 68 57 58 62 80 94 97 
103 108 105 94 89 83 78 78 91 
103 109 110 103 93 84 81 82 74 
56 70 92 99 109 117 115 117 116 
116 117 114 111 109 103 99 95 84 
72 62 45 5 5 5 15 5 21 
38 50 68 81 83 80 78 68 59 
69 87 94 100 106 110 111 109 111 
112 114 114 113 114 111 98 88 66 
54 70 80 86 98 108 103 94 79 
75 83 94 99 101 100 94 93 91 
88 76 60 65 81 94 97 100 105 
102 94 86 86 87 88 89 95 103 
111 114 110 103 97 97 94 91 72 
72 89 97 109 116 116 119 116 116 
116 112 107 101 95 91 87 76 67 
71 62 5 35 5 5 21 39 50 
58 78 86 85 85 83 79 70 66 
78 88 96 102 111 114 113 114 116 
117 117 114 113 107 95 85 72 76 
87 85 83 88 103 105 96 83 75 
81 92 97 99 102 96 92 91 86 
71 63 79 94 98 101 104 104 99 
90 84 88 95 100 103 106 111 113 
113 115 112 107 104 98 95 81 72 
82 95 105 115 116 117 117 116 112 
104 98 93 90 82 76 75 80 84 
80 63 5 28 5 5 5 18 36 
59 62 73 86 89 90 89 88 89 
85 76 72 79 89 94 102 111 114 
115 116 114 114 114 111 102 89 80 
78 88 93 92 87 83 95 104 99 
90 76 75 87 94 95 98 96 93 
90 81 64 69 89 96 100 104 100 
99 92 84 86 94 102 108 111 111 
112 112 113 114 112 106 101 95 90 
82 74 77 92 104 114 114 111 112 
115 109 97 90 82 77 77 78 85 
91 92 92 86 54 5 20 5 5 
29 54 68 72 84 89 92 93 94 
96 95 91 88 79 78 84 90 93 
104 113 114 114 113 114 114 108 96 
84 76 82 93 97 100 91 84 89 
100 101 96 81 68 73 86 91 94 
96 94 88 71 58 73 93 97 101 
100 94 87 78 74 84 97 105 109 
109 106 107 107 106 106 104 99 92 
89 87 85 84 86 98 107 114 114 
110 111 114 107 93 84 77 77 83 
88 92 95 96 94 92 77 37 5 
5 5 17 5 29 48 69 77 82 
88 94 95 96 100 103 102 96 93 
88 81 79 86 90 97 109 115 115 
112 112 114 103 91 81 73 85 96 
103 107 98 89 88 96 102 99 90 
78 69 75 86 92 93 89 79 62 
53 73 92 95 98 96 85 71 69 
74 86 100 106 108 101 94 92 93 
96 99 96 91 86 87 88 91 95 
98 107 113 115 113 112 111 114 110 
98 89 88 90 92 94 99 106 105 
97 91 90 66 5 28 5 5 33 
51 67 81 86 90 95 98 98 98 
99 103 107 107 98 93 87 79 79 
88 95 105 114 114 112 113 110 97 
89 77 73 87 95 104 108 103 96 
92 97 103 103 97 88 81 73 74 
87 90 83 69 55 49 70 90 96 
97 91 78 76 86 91 95 101 107 
107 97 85 81 82 86 88 85 82 
85 91 95 100 106 110 114 117 116 
113 113 112 115 115 108 102 98 100 
104 105 108 111 111 104 96 92 87 
54 5 19 5 5 5 16 5 32 
56 71 82 87 91 96 100 101 100 
98 98 104 109 112 106 98 89 80 
72 82 94 106 112 112 112 111 103 
94 85 71 72 86 96 107 108 106 
105 102 102 105 107 104 94 90 83 
71 75 81 74 59 49 50 68 88 
94 93 87 81 89 96 99 103 107 
110 107 99 89 85 83 85 87 80 
76 85 94 98 103 108 112 115 117 
115 115 115 114 115 115 116 115 113 
112 114 113 111 112 113 109 102 93 
93 76 37 5 5 5 18 31 57 
77 86 90 90 96 102 104 103 100 
96 94 102 109 113 113 103 92 85 
73 77 92 107 113 112 112 106 95 
91 79 67 76 90 99 107 105 104 
105 105 106 107 106 106 103 94 91 
76 64 68 65 52 49 53 67 85 
92 91 84 84 93 101 107 110 111 
111 110 106 102 98 95 94 94 90 
86 86 89 93 98 100 103 107 114 
116 115 116 114 113 112 114 116 116 
116 115 116 114 112 112 110 104 96 
95 88 58 5 5 5 15 30 60 
79 84 88 91 93 100 105 106 105 
100 93 91 96 106 113 115 110 98 
89 82 83 97 110 114 113 109 98 
90 85 75 71 81 93 102 104 97 
96 98 98 98 101 103 103 102 92 
90 80 62 58 58 49 52 55 64 
77 87 87 82 83 94 100 107 109 
108 108 107 108 111 109 107 104 99 
95 92 81 75 78 82 87 89 93 
105 115 116 117 116 115 113 114 115 
115 114 113 114 113 107 106 103 99 
96 94 90 72 5 31 5 5 25 
56 81 85 87 91 94 97 101 105 
107 105 98 88 84 90 102 110 113 
115 109 100 97 99 108 114 113 111 
104 90 83 77 77 84 90 97 105 
100 89 87 88 89 89 93 98 98 
97 93 88 78 60 56 60 56 60 
60 61 70 82 82 74 79 93 95 
100 103 102 98 97 94 101 110 112 
113 106 95 94 81 63 62 68 78 
85 89 100 115 118 118 115 114 113 
112 111 113 114 112 106 101 97 96 
94 94 93 92 90 75 38 5 5 
5 18 44 76 87 88 91 97 99 
102 103 106 109 106 98 88 80 82 
93 107 112 114 112 106 106 111 115 
114 114 111 101 90 81 74 82 92 
94 101 107 97 84 78 76 78 83 
87 90 92 92 89 81 71 57 59 
64 66 70 66 61 66 78 79 68 
66 85 91 92 93 92 90 86 80 
87 103 114 112 103 94 88 80 70 
69 72 82 91 96 107 116 118 118 
115 114 112 111 112 113 113 108 96 
88 83 82 82 83 84 84 81 70 
42 5 5 31 67 83 87 90 97 
102 105 104 104 106 109 107 102 93 
85 82 86 98 110 114 110 102 102 
114 115 114 117 111 99 89 82 76 
87 92 96 106 109 98 85 76 66 
63 70 76 78 83 82 78 71 62 
56 59 66 73 77 72 62 61 69 
72 63 48 58 67 72 79 84 86 
85 82 87 103 113 107 96 89 83 
79 82 85 89 94 99 105 115 118 
115 116 117 114 111 112 113 115 111 
99 89 81 71 70 74 77 79 79 
75 65 45 5 5 5 17 46 79 
86 89 97 105 106 107 106 110 111 
114 111 106 98 89 86 84 94 106 
113 114 103 96 113 116 114 115 110 
98 88 83 79 86 91 99 109 110 
102 90 82 75 71 72 72 69 64 
58 56 53 54 56 53 57 70 74 
67 57 57 66 70 68 50 42 52 
69 81 89 92 93 94 97 108 110 
101 90 79 74 83 89 93 97 100 
102 111 117 118 114 114 117 114 111 
112 113 112 105 94 86 73 64 73 
81 83 85 85 80 72 56 5 29 
5 5 22 56 83 87 91 98 102 
103 103 106 111 114 114 113 110 102 
91 88 85 90 103 111 113 111 107 
114 115 114 113 107 95 90 83 77 
82 88 97 107 110 107 100 93 88 
86 84 81 77 67 57 52 54 60 
60 50 51 71 75 61 53 58 66 
67 68 57 51 67 85 93 95 97 
101 104 105 111 111 100 89 74 68 
85 94 97 103 105 108 114 116 118 
115 115 115 112 113 115 114 110 100 
89 81 71 74 86 90 91 91 91 
89 85 74 51 5 24 5 5 5 
13 26 62 83 88 90 94 93 94 
95 98 106 113 114 114 111 104 94 
89 86 89 102 114 115 116 116 113 
111 111 106 100 92 90 78 66 75 
84 93 104 107 106 106 101 95 91 
88 84 78 71 67 64 67 68 63 
54 50 61 62 53 56 60 60 60 
64 61 66 84 93 96 102 107 110 
111 110 111 111 103 93 84 75 84 
94 96 102 107 111 116 117 117 118 
118 113 108 115 115 112 109 97 88 
81 79 86 91 95 100 99 95 91 
89 84 69 45 5 5 16 31 61 
81 87 87 86 86 86 86 88 95 
107 114 113 109 105 97 89 87 92 
103 113 114 114 112 108 104 98 93 
92 88 85 69 54 67 78 90 103 
105 102 104 101 98 95 89 84 77 
67 64 66 68 67 64 61 47 43 
53 52 55 59 59 53 54 59 74 
88 93 98 103 105 104 103 101 102 
107 105 97 93 82 77 88 94 100 
105 110 117 118 117 119 120 113 110 
117 117 116 109 95 87 81 83 87 
94 103 106 102 95 89 85 84 76 
63 5 39 5 18 5 5 5 15 
22 35 50 69 78 81 81 79 77 
78 81 86 97 110 112 108 104 96 
87 86 90 103 112 113 113 109 99 
92 90 89 88 82 77 72 72 75 
80 91 103 105 102 102 99 98 93 
86 81 76 64 58 5 5 5 5 
5 5 5 5 5 5 5 5 5 
5 5 44 50 67 84 91 96 98 
98 95 90 86 88 95 100 97 95 
86 79 89 94 99 107 114 117 118 
116 118 119 117 116 119 117 116 108 
95 87 80 83 88 96 105 106 98 
92 86 85 84 82 73 57 34 5 
17 5 5 5 14 24 38 39 42 
59 72 78 78 77 76 75 77 80 
88 102 111 110 104 95 89 87 90 
104 113 112 113 104 89 82 79 75 
72 73 78 83 87 87 91 98 106 
107 104 102 97 90 86 82 78 72 
5 5 5 5 5 5 58 76 85 
87 88 88 88 79 74 79 84 91 
94 93 85 80 89 94 101 109 113 
115 118 116 117 119 118 117 118 118 
115 107 95 85 81 84 89 97 105 
105 97 90 84 82 81 82 77 69 
52 30 5 17 5 5 5 16 26 
43 50 43 45 57 70 76 78 79 
79 77 79 80 86 98 110 112 105 
96 86 85 94 109 113 113 113 101 
86 84 73 56 56 75 87 85 91 
98 104 107 107 105 101 97 91 85 
81 78 69 5 5 5 5 62 71 
72 74 77 77 76 76 78 80 84 
86 84 77 80 90 93 99 107 111 
112 114 117 119 118 117 117 119 118 
116 109 97 86 80 82 88 100 108 
105 97 88 81 79 79 81 81 78 
67 52 29 5 5 5 15 25 46 
60 55 49 57 66 72 76 79 82 
82 82 83 85 90 99 108 112 106 
95 86 87 97 110 113 113 114 106 
89 86 80 65 64 80 88 90 100 
107 111 110 105 97 90 88 86 81 
74 65 54 5 5 51 60 68 75 
82 84 87 89 86 82 82 82 75 
68 77 91 95 98 105 109 111 112 
116 119 116 117 117 119 117 116 110 
100 90 84 85 91 101 109 105 97 
88 82 78 77 80 83 84 79 70 
53 5 27 5 5 5 14 19 43 
64 64 59 60 69 76 79 79 82 
83 83 86 91 93 97 104 111 113 
107 97 88 91 102 112 116 114 116 
111 95 89 87 76 70 80 87 90 
100 108 110 107 96 86 81 80 76 
66 58 54 53 5 53 5 55 5 
5 49 61 76 85 90 89 90 93 
93 88 86 83 79 74 77 86 91 
94 99 102 107 112 116 119 117 118 
118 119 116 114 111 107 99 94 94 
97 104 110 108 99 91 86 81 79 
81 83 85 83 79 72 52 5 24 
5 5 5 13 17 35 63 71 67 
66 69 76 80 80 82 84 84 87 
91 97 101 105 111 113 112 107 99 
91 94 105 112 113 114 116 113 101 
92 88 80 71 77 85 87 95 107 
110 102 89 77 69 66 63 57 57 
58 54 5 5 5 5 5 56 74 
86 89 90 96 101 101 94 91 89 
88 87 83 82 88 92 93 93 93 
101 110 118 119 119 120 117 113 111 
110 110 108 107 107 108 111 113 111 
104 96 92 89 87 86 87 87 86 
86 82 72 45 5 19 5 5 15 
32 54 70 73 73 74 78 82 83 
82 82 82 85 89 90 98 106 111 
114 116 113 107 102 97 100 112 116 
115 115 113 111 105 93 88 82 72 
70 78 86 89 101 109 103 91 80 
75 76 76 72 67 59 48 5 5 
51 66 81 86 92 100 103 105 102 
100 97 92 90 88 79 80 85 88 
87 85 88 103 117 120 119 119 116 
110 105 105 108 111 111 111 112 113 
116 112 107 104 99 97 96 93 92 
92 91 89 86 82 68 38 5 15 
5 5 5 16 26 47 61 70 73 
76 79 82 83 82 81 81 80 84 
86 89 98 106 114 115 118 116 112 
106 102 108 115 116 115 116 113 113 
106 95 89 84 75 63 65 78 83 
91 105 108 99 90 83 82 80 76 
71 63 52 5 5 5 63 76 84 
90 93 95 101 106 108 107 100 92 
91 86 78 73 70 70 76 85 100 
115 121 118 119 117 108 101 99 102 
109 111 111 112 113 114 113 109 109 
107 103 102 102 100 99 95 92 89 
87 81 60 25 5 5 5 14 21 
41 54 60 70 75 79 81 82 83 
83 83 81 81 85 87 92 98 106 
112 115 115 114 112 108 108 114 116 
115 115 115 115 114 107 95 88 85 
76 62 51 59 76 84 98 108 105 
98 92 86 81 74 70 61 56 5 
5 5 71 84 88 91 93 93 101 
109 110 106 95 91 90 87 75 51 
47 70 88 100 115 120 118 118 116 
107 95 91 94 102 108 111 113 113 
113 112 111 111 108 105 103 104 105 
102 99 95 91 87 85 74 40 5 
17 5 5 5 15 16 32 48 51 
64 73 76 77 80 82 85 85 86 
88 89 89 92 97 100 107 112 114 
112 111 110 110 113 116 116 116 115 
114 114 112 103 91 86 82 75 64 
47 47 66 78 94 108 107 103 96 
88 81 74 66 60 5 5 5 68 
78 83 87 87 85 92 104 108 104 
96 92 90 90 85 63 53 75 89 
98 113 117 117 117 116 108 92 85 
86 93 102 109 112 110 110 108 108 
106 102 103 104 104 106 105 102 99 
93 88 86 78 55 29 5 5 5 
19 16 25 42 53 61 73 76 78 
78 79 82 84 86 90 91 93 95 
98 104 106 110 113 113 112 110 109 
109 113 116 115 116 115 115 113 110 
98 89 84 81 73 63 53 58 73 
83 97 110 109 105 97 90 83 76 
66 60 5 5 62 74 81 81 80 
81 88 102 109 103 95 93 90 90 
88 73 62 79 88 95 112 119 117 
117 116 107 91 81 81 89 97 102 
104 104 103 101 100 100 98 101 103 
104 105 106 102 100 95 91 88 78 
61 45 5 23 5 5 14 21 39 
60 70 78 80 80 78 79 77 82 
84 88 92 96 99 102 106 109 111 
112 113 113 111 109 108 110 114 116 
114 115 116 115 114 106 91 86 82 
76 65 60 65 77 83 88 102 111 
109 105 99 92 85 75 66 58 5 
5 59 67 74 74 76 81 90 104 
107 100 93 91 91 89 86 79 71 
78 87 92 107 117 116 117 116 108 
93 80 76 86 93 94 94 94 92 
93 96 97 98 101 103 106 106 106 
104 102 97 92 89 81 67 60 36 
5 5 5 17 18 34 62 79 81 
82 82 81 81 79 78 81 83 87 
92 99 104 110 111 113 116 115 113 
109 105 103 105 110 114 116 115 114 
115 114 112 99 87 83 76 65 59 
64 78 85 88 95 105 109 107 103 
97 90 85 75 62 53 5 5 62 
62 66 68 74 83 95 106 106 99 
92 88 89 86 83 83 78 75 81 
86 101 116 117 116 117 110 95 81 
73 74 84 85 84 86 86 90 96 
99 104 107 110 112 111 111 108 102 
98 92 89 84 76 71 49 5 5 
16 31 62 83 86 88 87 84 82 
81 80 79 79 83 87 91 97 104 
111 114 116 119 117 111 104 100 99 
104 112 115 113 115 115 115 114 108 
93 85 78 66 57 61 71 82 87 
91 101 108 107 101 97 92 87 85 
76 60 53 5 5 63 58 63 72 
80 87 97 105 98 91 87 86 86 
84 82 85 82 75 76 83 94 110 
117 115 117 111 97 84 74 68 75 
79 81 86 91 95 100 104 110 113 
115 116 113 109 105 99 94 90 89 
87 79 68 55 5 5 5 15 26 
59 84 87 87 89 86 84 81 78 
78 78 79 82 86 90 94 101 107 
115 118 119 115 111 104 98 97 101 
110 115 114 115 115 114 114 106 90 
84 71 56 59 65 74 83 85 93 
101 105 99 93 91 87 84 80 69 
58 54 5 5 60 55 65 80 86 
90 101 105 95 90 84 85 86 83 
81 84 83 78 76 81 89 105 116 
117 117 116 103 87 80 78 81 83 
85 90 95 102 108 113 115 116 115 
111 105 98 95 91 88 88 87 87 
77 57 55 5 5 20 48 81 88 
88 90 90 87 83 78 75 72 72 
75 80 83 85 89 96 104 112 117 
118 116 112 106 100 99 103 110 115 
113 115 116 113 113 101 86 82 68 
58 66 73 80 83 85 94 102 102 
95 88 85 83 80 70 56 50 47 
5 5 56 53 72 84 86 94 106 
105 94 87 81 80 84 83 82 84 
82 80 76 79 87 104 116 118 115 
115 109 94 86 85 86 90 97 104 
109 114 116 117 115 110 105 98 91 
87 87 87 85 83 80 74 64 47 
48 5 53 5 5 5 14 36 73 
86 88 93 94 91 89 81 73 68 
64 65 69 74 80 83 85 91 99 
111 115 116 116 114 108 104 102 105 
109 114 113 114 113 112 113 98 83 
80 67 62 69 76 80 82 86 95 
102 99 91 86 83 78 70 58 56 
52 45 5 5 56 54 74 85 90 
97 108 109 96 86 82 74 74 77 
79 83 82 82 80 79 88 104 116 
119 117 116 114 104 97 95 99 105 
111 112 114 116 115 114 108 100 93 
89 86 85 84 80 75 71 67 61 
58 59 60 60 5 50 5 5 22 
59 85 87 91 99 102 96 88 82 
77 69 62 60 63 69 76 80 82 
86 91 104 114 117 116 116 113 109 
106 109 114 114 114 114 111 110 110 
92 83 79 65 62 69 75 78 82 
87 93 99 94 87 84 79 72 64 
64 66 54 46 5 5 48 52 73 
85 90 98 109 112 100 88 84 76 
67 67 71 78 82 82 82 82 90 
106 115 117 117 116 116 114 111 111 
112 114 115 113 113 114 111 106 97 
89 85 84 84 81 74 68 65 63 
64 66 71 79 81 78 67 5 35 
5 5 5 14 36 75 88 90 95 
104 108 102 90 87 82 79 76 71 
69 72 76 76 79 83 86 97 110 
114 114 115 115 113 110 112 115 114 
114 112 111 111 107 90 82 77 67 
64 70 76 77 81 85 91 95 89 
84 82 71 67 68 71 70 56 50 
5 5 40 52 73 85 88 96 103 
107 106 95 86 84 74 66 63 69 
79 81 82 84 92 108 114 113 114 
117 118 117 115 115 114 114 115 115 
115 112 108 99 91 86 84 81 75 
70 65 64 68 72 73 77 83 87 
89 88 80 59 5 26 5 5 14 
46 83 88 89 94 102 112 112 102 
93 87 86 85 81 79 80 79 75 
76 81 84 93 108 114 114 116 117 
117 114 114 114 113 114 111 109 111 
106 87 81 79 69 62 67 75 78 
82 85 89 88 83 82 76 63 69 
76 77 74 59 55 5 5 41 50 
69 80 87 90 94 98 104 100 90 
89 84 76 67 63 68 78 83 86 
94 108 113 111 111 115 117 117 115 
116 116 115 116 114 113 109 100 90 
84 84 81 73 67 66 72 73 76 
80 81 84 87 91 93 92 87 80 
49 5 5 17 47 79 85 87 89 
91 101 111 114 107 101 96 92 88 
85 82 83 79 77 79 84 92 107 
115 117 118 118 116 117 117 114 112 
111 110 109 111 102 87 82 80 69 
59 62 74 80 82 86 87 85 83 
80 67 64 78 82 81 74 59 53 
5 5 41 53 65 73 82 85 88 
92 99 102 98 92 89 87 83 74 
69 74 82 86 90 102 112 112 110 
112 114 115 117 116 117 117 115 115 
112 103 90 84 83 81 75 69 71 
77 81 82 83 84 85 87 89 93 
97 95 89 87 71 5 32 5 5 
5 13 23 48 70 78 81 83 85 
89 100 116 118 116 113 107 100 95 
90 86 85 81 80 85 95 112 118 
116 117 117 118 119 119 115 112 111 
109 109 108 97 86 83 79 71 57 
54 67 79 83 85 84 81 78 68 
62 73 83 83 81 77 62 55 5 
5 5 54 65 63 74 83 85 89 
95 101 103 96 90 89 87 84 79 
76 77 80 84 92 104 111 110 110 
111 113 117 117 116 118 115 115 108 
96 85 82 82 78 74 75 81 84 
85 86 86 85 85 88 92 97 101 
98 91 87 84 50 5 5 19 43 
64 72 75 71 70 78 85 93 108 
118 120 119 116 112 106 99 92 88 
86 83 87 101 114 116 115 118 118 
119 121 121 116 112 110 109 110 106 
92 85 82 80 75 61 47 54 71 
80 80 77 72 65 62 73 81 82 
83 82 77 62 55 5 5 53 67 
59 59 73 82 86 89 96 100 97 
93 89 87 87 84 81 74 73 78 
85 97 110 111 111 112 112 114 116 
116 116 114 114 103 90 84 79 77 
77 80 84 87 88 89 89 90 90 